/*--------------------------------*- C++ -*----------------------------------*\
| =========                 |                                                 |
| \\      /  F ield         | OpenFOAM: The Open Source CFD Toolbox           |
|  \\    /   O peration     | Version:  v2006                                 |
|   \\  /    A nd           | Website:  www.openfoam.com                      |
|    \\/     M anipulation  |                                                 |
\*---------------------------------------------------------------------------*/
FoamFile
{
    version     2.0;
    format      ascii;
    class       volScalarField;
    location    "0";
    object      Q;
}
// * * * * * * * * * * * * * * * * * * * * * * * * * * * * * * * * * * * * * //

dimensions      [0 0 -2 0 0 0 0];


internalField   nonuniform List<scalar> 
32768
(
-11.3477536724
-10.4839573579
-8.88786988748
-6.8024811099
-4.5452725625
-2.4598837849
-0.863796314468
-1.12374068381e-11
1.242029396e-11
-0.863796314468
-2.45988378489
-4.54527256248
-6.80248110993
-8.88786988748
-10.4839573579
-11.3477536724
-11.3477536724
-10.483957358
-8.88786988747
-6.80248110986
-4.54527256248
-2.45988378489
-0.863796314441
-1.10684100771e-11
1.20822865601e-11
-0.863796314467
-2.45988378489
-4.54527256249
-6.80248110993
-8.88786988749
-10.4839573579
-11.3477536724
-10.4839573579
-9.62016104345
-8.02407357296
-5.9386847954
-3.681476248
-1.5960874704
5.53401768875e-12
0.863796314499
0.863796314497
3.87396781321e-11
-1.59608747037
-3.68147624798
-5.93868479543
-8.02407357299
-9.62016104336
-10.4839573579
-10.4839573579
-9.62016104335
-8.02407357297
-5.93868479537
-3.68147624793
-1.59608747036
2.98372437868e-11
0.863796314497
0.863796314496
3.82583964509e-11
-1.59608747036
-3.68147624798
-5.93868479543
-8.02407357298
-9.62016104336
-10.4839573578
-8.88786988748
-8.02407357296
-6.42798610256
-4.34259732506
-2.08538877756
5.04140063031e-11
1.59608747045
2.45988378502
2.45988378489
1.59608747047
8.28209723025e-11
-2.08538877748
-4.3425973249
-6.42798610259
-8.02407357303
-8.88786988747
-8.88786988746
-8.02407357302
-6.42798610257
-4.34259732487
-2.08538877751
5.04117858569e-11
1.59608747044
2.45988378502
2.45988378489
1.59608747047
8.28209723025e-11
-2.08538877748
-4.34259732496
-6.4279861026
-8.02407357296
-8.88786988744
-6.8024811099
-5.9386847954
-4.34259732506
-2.25720854739
4.24762447438e-11
2.0853887776
3.68147624797
4.54527256262
4.54527256241
3.68147624801
2.08538877757
4.24746904316e-11
-2.25720854733
-4.34259732497
-5.93868479546
-6.80248110989
-6.80248110989
-5.93868479545
-4.34259732491
-2.25720854738
-3.10862443286e-15
2.08538877758
3.68147624797
4.54527256262
4.54527256241
3.681476248
2.08538877757
4.2474468387e-11
-2.25720854738
-4.342597325
-5.93868479546
-6.80248110988
-4.5452725625
-3.681476248
-2.08538877756
4.24760226992e-11
2.25720854748
4.34259732498
5.93868479537
6.8024811101
6.80248110984
5.93868479545
4.34259732502
2.25720854737
-2.2204428071e-16
-2.08538877756
-3.68147624799
-4.54527256249
-4.54527256249
-3.68147624797
-2.08538877756
0
2.25720854737
4.34259732502
5.93868479538
6.80248111009
6.80248110991
5.93868479544
4.34259732501
2.25720854748
3.24220873678e-22
-2.08538877759
-3.68147624799
-4.54527256248
-2.4598837849
-1.5960874704
5.04141173254e-11
2.0853887776
4.34259732498
6.42798610244
8.02407357289
8.88786988761
8.88786988737
8.02407357291
6.42798610261
4.34259732503
2.08538877757
1.80058190586e-11
-1.5960874704
-2.4598837849
-2.45988378489
-1.5960874704
1.80037096343e-11
2.08538877757
4.34259732497
6.42798610262
8.02407357282
8.88786988763
8.88786988736
8.02407357292
6.42798610259
4.34259732504
2.08538877763
1.44059209013e-11
-1.5960874704
-2.45988378489
-0.863796314468
5.53368462185e-12
1.59608747045
3.68147624797
5.93868479537
8.02407357289
9.62016104326
10.4839573581
10.4839573577
9.62016104339
8.02407357299
5.93868479543
3.681476248
1.59608747044
7.94009302769e-12
-0.863796314465
-0.863796314466
8.66196003832e-12
1.59608747044
3.68147624798
5.93868479543
8.024073573
9.62016104327
10.4839573581
10.4839573577
9.62016104338
8.02407357299
5.93868479536
3.681476248
1.59608747044
5.29365440388e-12
-0.863796314463
-1.12374068381e-11
0.863796314499
2.45988378502
4.54527256262
6.8024811101
8.88786988761
10.4839573581
11.347753673
11.3477536726
10.4839573582
8.88786988776
6.80248111012
4.54527256262
2.45988378501
0.863796314499
-1.13208400984e-11
-1.08983794209e-11
0.863796314502
2.45988378501
4.54527256262
6.80248111012
8.88786988778
10.4839573581
11.347753673
11.3477536725
10.4839573582
8.88786988776
6.80248111011
4.54527256262
2.45988378501
0.8637963145
-1.13208262206e-11
1.242029396e-11
0.863796314497
2.45988378489
4.54527256241
6.80248110984
8.88786988737
10.4839573577
11.3477536726
11.3477536721
10.4839573578
8.88786988743
6.80248110986
4.54527256245
2.45988378492
0.8637963145
1.24213556108e-11
1.27593144383e-11
0.8637963145
2.45988378493
4.54527256245
6.80248110986
8.88786988743
10.4839573577
11.3477536726
11.3477536721
10.4839573578
8.88786988742
6.80248110986
4.54527256245
2.45988378492
0.863796314497
1.22523519108e-11
-0.863796314468
3.8741121422e-11
1.59608747047
3.68147624801
5.93868479545
8.02407357291
9.62016104339
10.4839573582
10.4839573578
9.62016104352
8.02407357311
5.93868479545
3.681476248
1.59608747046
1.49178447375e-11
-0.863796314467
-0.863796314465
1.53986823294e-11
1.59608747047
3.68147624805
5.93868479545
8.0240735731
9.6201610434
10.4839573582
10.4839573578
9.62016104351
8.0240735731
5.93868479545
3.681476248
1.59608747046
3.82586184955e-11
-0.863796314462
-2.45988378489
-1.59608747037
8.28209723025e-11
2.08538877757
4.34259732502
6.42798610261
8.02407357299
8.88786988776
8.88786988743
8.02407357311
6.42798610261
4.34259732504
2.08538877761
4.68128869003e-11
-1.59608747036
-2.45988378488
-2.45988378488
-1.59608747036
1.08031361635e-11
2.08538877761
4.34259732512
6.42798610263
8.02407357294
8.88786988775
8.88786988742
8.02407357311
6.42798610261
4.34259732504
2.08538877761
8.28225266148e-11
-1.59608747036
-2.45988378488
-4.54527256248
-3.68147624798
-2.08538877748
4.2474468387e-11
2.25720854737
4.34259732503
5.93868479543
6.80248111012
6.80248110986
5.93868479545
4.34259732504
2.25720854748
4.24773549668e-11
-2.08538877751
-3.68147624793
-4.54527256248
-4.54527256248
-3.68147624792
-2.08538877751
2.22044604925e-16
2.25720854748
4.34259732507
5.93868479537
6.80248111012
6.80248110986
5.93868479544
4.34259732506
2.25720854748
4.24773549668e-11
-2.08538877747
-3.68147624798
-4.54527256247
-6.80248110993
-5.93868479543
-4.3425973249
-2.25720854733
-2.2204428071e-16
2.08538877757
3.681476248
4.54527256262
4.54527256245
3.681476248
2.08538877761
4.24773549668e-11
-2.25720854737
-4.34259732498
-5.93868479542
-6.80248110992
-6.80248110991
-5.9386847954
-4.34259732495
-2.25720854734
4.24773549668e-11
2.08538877761
3.68147624795
4.54527256262
4.54527256245
3.68147624805
2.08538877761
-2.22044604925e-16
-2.25720854734
-4.34259732499
-5.93868479543
-6.8024811099
-8.88786988748
-8.02407357299
-6.42798610259
-4.34259732497
-2.08538877756
1.80058190586e-11
1.59608747044
2.45988378501
2.45988378492
1.59608747046
4.68128869003e-11
-2.08538877751
-4.34259732498
-6.42798610246
-8.02407357297
-8.88786988747
-8.88786988747
-8.02407357304
-6.42798610252
-4.34259732492
-2.08538877747
8.28225266148e-11
1.59608747043
2.45988378501
2.45988378492
1.59608747047
1.08031361635e-11
-2.08538877755
-4.34259732501
-6.42798610254
-8.02407357298
-8.88786988745
-10.4839573579
-9.62016104336
-8.02407357303
-5.93868479546
-3.68147624799
-1.5960874704
7.94009302769e-12
0.863796314499
0.8637963145
1.49178447375e-11
-1.59608747036
-3.68147624793
-5.93868479542
-8.02407357297
-9.62016104343
-10.4839573579
-10.4839573579
-9.62016104342
-8.02407357296
-5.93868479543
-3.68147624798
-1.59608747036
2.74311684479e-11
0.8637963145
0.863796314499
1.44362299893e-11
-1.59608747041
-3.68147624798
-5.93868479535
-8.0240735729
-9.62016104343
-10.4839573578
-11.3477536724
-10.4839573579
-8.88786988747
-6.80248110989
-4.54527256249
-2.4598837849
-0.863796314465
-1.13208539762e-11
1.24213278552e-11
-0.863796314467
-2.45988378488
-4.54527256248
-6.80248110992
-8.88786988747
-10.4839573579
-11.3477536724
-11.3477536724
-10.4839573579
-8.88786988746
-6.80248110985
-4.54527256247
-2.45988378488
-0.86379631444
-1.11518294596e-11
1.20833967832e-11
-0.863796314467
-2.45988378488
-4.54527256247
-6.80248110991
-8.88786988748
-10.4839573579
-11.3477536724
-11.3477536724
-10.4839573579
-8.88786988746
-6.80248110989
-4.54527256249
-2.45988378489
-0.863796314466
-1.08983863598e-11
1.27593144383e-11
-0.863796314465
-2.45988378488
-4.54527256248
-6.80248110991
-8.88786988747
-10.4839573579
-11.3477536724
-11.3477536724
-10.4839573579
-8.88786988746
-6.80248110985
-4.54527256247
-2.45988378489
-0.863796314442
-1.06449224432e-11
1.2505836644e-11
-0.863796314465
-2.45988378488
-4.54527256247
-6.80248110991
-8.88786988748
-10.4839573579
-11.3477536724
-10.483957358
-9.62016104335
-8.02407357302
-5.93868479545
-3.68147624797
-1.5960874704
8.66196003832e-12
0.863796314502
0.8637963145
1.53986823294e-11
-1.59608747036
-3.68147624792
-5.9386847954
-8.02407357304
-9.62016104342
-10.4839573579
-10.4839573579
-9.6201610434
-8.02407357295
-5.93868479542
-3.68147624797
-1.59608747036
3.05586667082e-11
0.863796314503
0.8637963145
1.49175671817e-11
-1.5960874704
-3.68147624797
-5.93868479534
-8.02407357297
-9.62016104342
-10.4839573579
-8.88786988747
-8.02407357297
-6.42798610257
-4.34259732491
-2.08538877756
1.8003598612e-11
1.59608747044
2.45988378501
2.45988378493
1.59608747047
1.08030251412e-11
-2.08538877751
-4.34259732495
-6.42798610252
-8.02407357296
-8.88786988746
-8.88786988746
-8.02407357295
-6.42798610259
-4.34259732498
-2.08538877746
8.64240901067e-11
1.59608747044
2.45988378501
2.45988378492
1.59608747047
1.08028030966e-11
-2.08538877754
-4.34259732498
-6.42798610253
-8.02407357297
-8.88786988743
-6.80248110986
-5.93868479537
-4.34259732487
-2.25720854738
0
2.08538877757
3.68147624798
4.54527256262
4.54527256245
3.68147624805
2.08538877761
2.22044604925e-16
-2.25720854734
-4.34259732492
-5.93868479543
-6.80248110985
-6.80248110985
-5.93868479542
-4.34259732498
-2.2572085473
4.24773549668e-11
2.08538877761
3.68147624795
4.54527256262
4.54527256245
3.68147624805
2.08538877761
4.24795754128e-11
-2.25720854734
-4.34259732493
-5.93868479543
-6.80248110983
-4.54527256248
-3.68147624793
-2.08538877751
-3.33066903779e-15
2.25720854737
4.34259732497
5.93868479543
6.80248111012
6.80248110986
5.93868479545
4.34259732512
2.25720854748
4.24773549668e-11
-2.08538877747
-3.68147624798
-4.54527256247
-4.54527256247
-3.68147624797
-2.08538877746
4.24775770114e-11
2.25720854748
4.34259732513
5.93868479537
6.80248111012
6.80248110986
5.93868479544
4.34259732509
2.25720854748
8.49533776662e-11
-2.08538877747
-3.68147624798
-4.54527256247
-2.45988378489
-1.59608747036
5.04117858569e-11
2.08538877758
4.34259732502
6.42798610262
8.024073573
8.88786988778
8.88786988743
8.0240735731
6.42798610263
4.34259732507
2.08538877761
8.28225266148e-11
-1.59608747036
-2.45988378488
-2.45988378489
-1.59608747036
8.64240901067e-11
2.08538877761
4.34259732513
6.42798610263
8.02407357293
8.88786988778
8.88786988743
8.0240735731
6.42798610263
4.34259732501
2.08538877761
8.64240901066e-11
-1.59608747036
-2.45988378488
-0.863796314441
2.98385205433e-11
1.59608747044
3.68147624797
5.93868479538
8.02407357282
9.62016104327
10.4839573581
10.4839573577
9.6201610434
8.02407357294
5.93868479537
3.68147624795
1.59608747043
2.74311684479e-11
-0.86379631444
-0.863796314442
3.05586667082e-11
1.59608747044
3.68147624795
5.93868479537
8.02407357293
9.62016104328
10.4839573581
10.4839573577
9.62016104339
8.02407357293
5.93868479537
3.68147624795
1.59608747043
2.95963809016e-11
-0.863796314439
-1.10684100771e-11
0.863796314497
2.45988378502
4.54527256262
6.80248111009
8.88786988763
10.4839573581
11.347753673
11.3477536726
10.4839573582
8.88786988775
6.80248111012
4.54527256262
2.45988378501
0.8637963145
-1.11518294596e-11
-1.06449224432e-11
0.863796314503
2.45988378501
4.54527256262
6.80248111012
8.88786988778
10.4839573581
11.347753673
11.3477536726
10.4839573582
8.88786988775
6.80248111012
4.54527256262
2.45988378501
0.8637963145
-1.10673414874e-11
1.20822865601e-11
0.863796314496
2.45988378489
4.54527256241
6.80248110991
8.88786988736
10.4839573577
11.3477536725
11.3477536721
10.4839573578
8.88786988742
6.80248110986
4.54527256245
2.45988378492
0.863796314499
1.20833967832e-11
1.25058435829e-11
0.8637963145
2.45988378492
4.54527256245
6.80248110986
8.88786988743
10.4839573577
11.3477536726
11.3477536721
10.4839573578
8.88786988741
6.80248110985
4.54527256245
2.45988378492
0.863796314499
1.20833343331e-11
-0.863796314467
3.82598397408e-11
1.59608747047
3.681476248
5.93868479544
8.02407357292
9.62016104338
10.4839573582
10.4839573578
9.62016104351
8.02407357311
5.93868479544
3.68147624805
1.59608747047
1.44362299893e-11
-0.863796314467
-0.863796314465
1.49176226928e-11
1.59608747047
3.68147624805
5.93868479544
8.0240735731
9.62016104339
10.4839573582
10.4839573578
9.6201610435
8.02407357311
5.93868479544
3.681476248
1.59608747046
1.39554479086e-11
-0.863796314465
-2.45988378489
-1.59608747036
8.28209723025e-11
2.08538877757
4.34259732501
6.42798610259
8.02407357299
8.88786988776
8.88786988742
8.0240735731
6.42798610261
4.34259732506
2.08538877761
1.08031361635e-11
-1.59608747041
-2.45988378488
-2.45988378488
-1.5960874704
1.08028030966e-11
2.08538877761
4.34259732509
6.42798610263
8.02407357293
8.88786988775
8.88786988741
8.02407357311
6.42798610261
4.34259732504
2.08538877761
4.68131089449e-11
-1.59608747037
-2.45988378487
-4.54527256249
-3.68147624798
-2.08538877748
4.2474468387e-11
2.25720854748
4.34259732504
5.93868479536
6.80248111011
6.80248110986
5.93868479545
4.34259732504
2.25720854748
2.22044604925e-16
-2.08538877755
-3.68147624798
-4.54527256247
-4.54527256247
-3.68147624797
-2.08538877754
4.2478909279e-11
2.25720854748
4.34259732501
5.93868479537
6.80248111012
6.80248110985
5.93868479544
4.34259732504
2.25720854748
4.24775770114e-11
-2.08538877752
-3.68147624793
-4.54527256247
-6.80248110993
-5.93868479543
-4.34259732496
-2.25720854738
3.24220873678e-22
2.08538877763
3.681476248
4.54527256262
4.54527256245
3.681476248
2.08538877761
4.24773549668e-11
-2.25720854734
-4.34259732501
-5.93868479535
-6.80248110991
-6.80248110991
-5.93868479534
-4.34259732498
-2.25720854734
8.49538217554e-11
2.08538877761
3.68147624795
4.54527256262
4.54527256245
3.681476248
2.08538877761
4.24775770114e-11
-2.25720854737
-4.34259732498
-5.93868479542
-6.80248110991
-8.88786988749
-8.02407357298
-6.4279861026
-4.342597325
-2.08538877759
1.4405809879e-11
1.59608747044
2.45988378501
2.45988378492
1.59608747046
8.28225266148e-11
-2.08538877747
-4.34259732499
-6.42798610254
-8.0240735729
-8.88786988748
-8.88786988748
-8.02407357297
-6.42798610253
-4.34259732493
-2.08538877747
8.64240901066e-11
1.59608747043
2.45988378501
2.45988378492
1.59608747046
4.68128869003e-11
-2.08538877752
-4.34259732498
-6.42798610248
-8.02407357298
-8.88786988745
-10.4839573579
-9.62016104336
-8.02407357296
-5.93868479546
-3.68147624799
-1.5960874704
5.29365440388e-12
0.8637963145
0.863796314497
3.82585074732e-11
-1.59608747036
-3.68147624798
-5.93868479543
-8.02407357298
-9.62016104343
-10.4839573579
-10.4839573579
-9.62016104342
-8.02407357297
-5.93868479543
-3.68147624798
-1.59608747036
2.95964364128e-11
0.8637963145
0.863796314499
1.39555589309e-11
-1.59608747037
-3.68147624793
-5.93868479542
-8.02407357298
-9.62016104343
-10.4839573578
-11.3477536724
-10.4839573578
-8.88786988744
-6.80248110988
-4.54527256248
-2.45988378489
-0.863796314463
-1.13208123428e-11
1.2252338033e-11
-0.863796314462
-2.45988378488
-4.54527256247
-6.8024811099
-8.88786988745
-10.4839573578
-11.3477536724
-11.3477536724
-10.4839573579
-8.88786988743
-6.80248110983
-4.54527256247
-2.45988378488
-0.863796314439
-1.10673414874e-11
1.20833759665e-11
-0.863796314465
-2.45988378487
-4.54527256247
-6.80248110991
-8.88786988745
-10.4839573578
-11.3477536723
-10.4923366629
-9.6936550911
-8.21788397667
-6.28969609391
-4.20264056896
-2.27445268621
-0.798681571821
-2.60164806353e-12
3.5751471229e-12
-0.798681571797
-2.27445268619
-4.20264056895
-6.28969609393
-8.21788397668
-9.69365509108
-10.4923366629
-10.4923366629
-9.69365509107
-8.21788397667
-6.28969609393
-4.20264056895
-2.27445268619
-0.798681571798
-2.35791247625e-12
3.41268679992e-12
-0.7986815718
-2.27445268619
-4.20264056895
-6.28969609394
-8.21788397668
-9.69365509109
-10.4923366629
-9.6936550911
-8.89497351923
-7.41920240477
-5.49101452205
-3.40395899715
-1.47577111437
5.55300250232e-12
0.79868157185
0.798681571824
1.36507471993e-11
-1.47577111433
-3.40395899709
-5.49101452208
-7.41920240479
-8.89497351922
-9.69365509108
-9.69365509108
-8.89497351921
-7.41920240478
-5.49101452208
-3.40395899708
-1.47577111435
5.78392889147e-12
0.798681571851
0.798681571826
1.34191546764e-11
-1.47577111434
-3.40395899708
-5.49101452208
-7.4192024048
-8.89497351923
-9.69365509106
-8.21788397667
-7.41920240477
-5.94343129045
-4.01524340773
-1.92818788271
2.77029510443e-11
1.47577111441
2.27445268632
2.27445268623
1.47577111443
2.42389441852e-11
-1.92818788269
-4.01524340768
-5.94343129043
-7.41920240477
-8.21788397666
-8.21788397666
-7.41920240477
-5.94343129036
-4.01524340768
-1.92818788273
2.7700286509e-11
1.47577111443
2.27445268631
2.27445268623
1.47577111443
2.07787120844e-11
-1.92818788269
-4.01524340768
-5.94343129044
-7.41920240477
-8.21788397664
-6.28969609391
-5.49101452205
-4.01524340773
-2.087055525
1.63373758968e-11
1.92818788272
3.4039589971
4.20264056908
4.20264056892
3.40395899716
1.92818788274
1.6337819986e-11
-2.08705552492
-4.01524340767
-5.49101452211
-6.2896960939
-6.2896960939
-5.49101452209
-4.01524340767
-2.08705552496
1.63391522536e-11
1.92818788283
3.4039589971
4.20264056908
4.20264056892
3.40395899716
1.92818788274
1.22530874338e-11
-2.08705552492
-4.01524340767
-5.49101452211
-6.28969609389
-4.20264056896
-3.40395899715
-1.92818788271
1.63373758968e-11
2.08705552498
4.01524340765
5.49101452208
6.2896960941
6.28969609387
5.49101452216
4.01524340772
2.08705552499
1.63375979413e-11
-1.92818788269
-3.40395899715
-4.20264056896
-4.20264056896
-3.40395899715
-1.92818788273
1.63375979413e-11
2.08705552504
4.01524340772
5.49101452203
6.2896960941
6.28969609386
5.49101452216
4.01524340772
2.08705552499
1.63375979413e-11
-1.92818788269
-3.40395899716
-4.20264056894
-2.27445268621
-1.47577111437
2.76996203753e-11
1.92818788272
4.01524340765
5.94343129039
7.41920240478
8.21788397681
8.21788397649
7.4192024048
5.9434312904
4.0152434077
1.92818788277
2.76960676615e-11
-1.47577111437
-2.2744526862
-2.2744526862
-1.47577111437
3.11594083869e-11
1.92818788277
4.0152434077
5.94343129039
7.41920240471
8.21788397681
8.21788397649
7.4192024048
5.94343129039
4.0152434077
1.92818788277
2.76962897061e-11
-1.47577111437
-2.2744526862
-0.798681571821
5.55300250232e-12
1.47577111441
3.4039589971
5.49101452208
7.41920240478
8.89497351906
9.69365509124
9.69365509087
8.89497351918
7.4192024048
5.49101452208
3.40395899714
1.47577111441
5.5527804577e-12
-0.798681571821
-0.79868157182
8.56043014257e-12
1.47577111441
3.40395899714
5.49101452209
7.41920240482
8.89497351906
9.69365509125
9.69365509088
8.89497351917
7.4192024048
5.49101452208
3.40395899714
1.47577111441
5.32124344591e-12
-0.79868157182
-2.59925414513e-12
0.79868157185
2.27445268632
4.20264056908
6.2896960941
8.21788397681
9.69365509124
10.4923366634
10.492336663
9.69365509137
8.21788397686
6.28969609411
4.20264056912
2.27445268631
0.798681571853
-2.68206984387e-12
-2.19464030269e-12
0.798681571853
2.27445268631
4.20264056913
6.28969609418
8.21788397688
9.69365509118
10.4923366634
10.492336663
9.69365509136
8.21788397686
6.28969609411
4.20264056912
2.27445268631
0.798681571853
-2.60085009071e-12
3.5751471229e-12
0.798681571824
2.27445268623
4.20264056892
6.28969609387
8.21788397649
9.69365509087
10.492336663
10.4923366626
9.693655091
8.21788397655
6.28969609387
4.20264056896
2.27445268623
0.798681571828
3.57475854485e-12
4.06224359718e-12
0.798681571828
2.27445268622
4.20264056897
6.28969609394
8.21788397656
9.6936550908
10.492336663
10.4923366626
9.69365509099
8.21788397661
6.28969609387
4.20264056891
2.27445268622
0.798681571827
3.65601299248e-12
-0.798681571797
1.36507471993e-11
1.47577111443
3.40395899716
5.49101452216
7.4192024048
8.89497351918
9.69365509137
9.693655091
8.89497351929
7.41920240483
5.49101452216
3.40395899718
1.47577111443
1.3881895633e-11
-0.798681571796
-0.798681571795
1.68894342956e-11
1.47577111443
3.40395899718
5.49101452216
7.41920240485
8.89497351918
9.69365509138
9.69365509101
8.89497351928
7.41920240482
5.49101452214
3.40395899718
1.47577111443
1.36503586213e-11
-0.798681571794
-2.27445268619
-1.47577111433
2.4239610319e-11
1.92818788274
4.01524340772
5.9434312904
7.4192024048
8.21788397686
8.21788397655
7.41920240483
5.94343129041
4.0152434078
1.92818788278
5.5403126531e-11
-1.47577111433
-2.27445268618
-2.27445268619
-1.47577111434
2.77019518437e-11
1.92818788278
4.0152434078
5.94343129043
7.41920240474
8.21788397686
8.21788397655
7.41920240482
5.94343129042
4.0152434078
1.92818788278
5.54029044864e-11
-1.47577111434
-2.27445268618
-4.20264056895
-3.40395899709
-1.92818788269
1.6337819986e-11
2.08705552499
4.0152434077
5.49101452208
6.28969609411
6.28969609387
5.49101452216
4.0152434078
2.08705552504
5.31013011342e-11
-1.92818788267
-3.40395899709
-4.20264056894
-4.20264056894
-3.40395899707
-1.92818788264
1.63389302089e-11
2.08705552504
4.01524340781
5.49101452209
6.28969609411
6.28969609388
5.49101452215
4.0152434078
2.08705552504
5.31013011342e-11
-1.92818788268
-3.40395899709
-4.20264056893
-6.28969609393
-5.49101452208
-4.01524340768
-2.08705552492
1.63375979413e-11
1.92818788277
3.40395899714
4.20264056912
4.20264056896
3.40395899718
1.92818788278
5.31013011342e-11
-2.08705552498
-4.01524340771
-5.49101452207
-6.28969609392
-6.28969609392
-5.49101452212
-4.01524340765
-2.08705552493
5.30995247774e-11
1.92818788278
3.40395899713
4.20264056912
4.20264056896
3.40395899718
1.92818788278
1.22544197014e-11
-2.08705552498
-4.01524340772
-5.49101452207
-6.2896960939
-8.21788397668
-7.41920240479
-5.94343129043
-4.01524340767
-1.92818788269
2.76989542414e-11
1.47577111441
2.27445268631
2.27445268623
1.47577111443
5.5403126531e-11
-1.92818788267
-4.01524340771
-5.94343129038
-7.41920240478
-8.21788397667
-8.21788397668
-7.41920240478
-5.94343129038
-4.01524340771
-1.92818788267
5.8867466457e-11
1.4757711144
2.27445268631
2.27445268622
1.47577111443
2.07746042592e-11
-1.92818788267
-4.01524340765
-5.94343129037
-7.41920240479
-8.21788397665
-9.69365509108
-8.89497351922
-7.41920240477
-5.49101452211
-3.40395899715
-1.47577111437
5.5527804577e-12
0.798681571853
0.798681571828
1.38817846107e-11
-1.47577111433
-3.40395899709
-5.49101452207
-7.41920240478
-8.89497351921
-9.69365509107
-9.69365509107
-8.89497351921
-7.41920240478
-5.49101452207
-3.40395899709
-1.47577111433
5.78409542491e-12
0.798681571853
0.798681571827
1.36501365767e-11
-1.47577111433
-3.40395899707
-5.49101452207
-7.41920240479
-8.89497351922
-9.69365509105
-10.4923366629
-9.69365509108
-8.21788397666
-6.2896960939
-4.20264056896
-2.2744526862
-0.798681571821
-2.68209759944e-12
3.57475854485e-12
-0.798681571796
-2.27445268618
-4.20264056894
-6.28969609392
-8.21788397667
-9.69365509107
-10.4923366629
-10.4923366629
-9.69365509106
-8.21788397665
-6.28969609392
-4.20264056894
-2.27445268618
-0.798681571797
-2.43838282884e-12
3.4122635274e-12
-0.798681571796
-2.27445268619
-4.20264056894
-6.28969609392
-8.21788397668
-9.69365509107
-10.4923366629
-10.4923366629
-9.69365509108
-8.21788397666
-6.2896960939
-4.20264056896
-2.2744526862
-0.79868157182
-2.19467499716e-12
4.06224359718e-12
-0.798681571795
-2.27445268619
-4.20264056894
-6.28969609392
-8.21788397668
-9.69365509107
-10.4923366629
-10.4923366629
-9.69365509105
-8.21788397665
-6.28969609392
-4.20264056893
-2.27445268618
-0.798681571796
-2.03216610192e-12
3.81849413211e-12
-0.798681571797
-2.27445268619
-4.20264056893
-6.28969609392
-8.21788397668
-9.69365509107
-10.4923366629
-9.69365509107
-8.89497351921
-7.41920240477
-5.49101452209
-3.40395899715
-1.47577111437
8.56031912027e-12
0.798681571853
0.798681571828
1.68894342956e-11
-1.47577111434
-3.40395899707
-5.49101452212
-7.41920240478
-8.89497351921
-9.69365509106
-9.69365509105
-8.8949735192
-7.41920240477
-5.49101452206
-3.40395899709
-1.47577111433
4.16461309887e-12
0.798681571854
0.79868157183
1.43445255674e-11
-1.47577111437
-3.40395899707
-5.49101452206
-7.41920240478
-8.89497351921
-9.69365509103
-8.21788397667
-7.41920240478
-5.94343129036
-4.01524340767
-1.92818788273
3.11609626991e-11
1.47577111441
2.27445268631
2.27445268622
1.47577111443
2.77018408214e-11
-1.92818788264
-4.01524340765
-5.94343129038
-7.41920240478
-8.21788397665
-8.21788397665
-7.41920240477
-5.94343129036
-4.0152434077
-1.92818788267
5.54032375533e-11
1.4757711144
2.27445268631
2.27445268623
1.47577111443
2.07772687945e-11
-1.92818788267
-4.01524340765
-5.94343129038
-7.41920240478
-8.21788397664
-6.28969609393
-5.49101452208
-4.01524340768
-2.08705552496
1.63375979413e-11
1.92818788277
3.40395899714
4.20264056913
4.20264056897
3.40395899718
1.92818788278
1.63389302089e-11
-2.08705552493
-4.01524340771
-5.49101452207
-6.28969609392
-6.28969609392
-5.49101452206
-4.0152434077
-2.08705552498
5.31013011342e-11
1.92818788278
3.40395899713
4.20264056912
4.20264056897
3.40395899718
1.92818788278
5.30984145543e-11
-2.08705552493
-4.01524340771
-5.49101452207
-6.2896960939
-4.20264056895
-3.40395899708
-1.92818788273
1.63391522536e-11
2.08705552504
4.0152434077
5.49101452209
6.28969609418
6.28969609394
5.49101452216
4.0152434078
2.08705552504
5.30995247774e-11
-1.92818788267
-3.40395899709
-4.20264056894
-4.20264056893
-3.40395899709
-1.92818788267
5.31013011342e-11
2.08705552504
4.0152434078
5.49101452208
6.28969609418
6.28969609394
5.49101452215
4.01524340775
2.08705552501
9.39435196301e-11
-1.92818788267
-3.40395899709
-4.20264056892
-2.27445268619
-1.47577111435
2.7701729799e-11
1.92818788283
4.01524340772
5.94343129039
7.41920240482
8.21788397688
8.21788397656
7.41920240485
5.94343129043
4.01524340781
1.92818788278
5.88675774793e-11
-1.47577111433
-2.27445268618
-2.27445268618
-1.47577111433
5.54029044864e-11
1.92818788278
4.0152434078
5.94343129043
7.41920240476
8.21788397689
8.21788397656
7.41920240491
5.94343129049
4.01524340769
1.92818788273
5.54052359548e-11
-1.47577111433
-2.27445268617
-0.798681571798
5.78392889147e-12
1.47577111443
3.4039589971
5.49101452203
7.41920240471
8.89497351906
9.69365509118
9.6936550908
8.89497351918
7.41920240474
5.49101452209
3.40395899713
1.4757711144
5.78409542491e-12
-0.798681571797
-0.798681571796
4.16455758772e-12
1.4757711144
3.40395899713
5.49101452208
7.41920240476
8.89497351907
9.69365509118
9.69365509081
8.89497351917
7.41920240474
5.4910145221
3.40395899713
1.4757711144
3.2391866967e-12
-0.798681571794
-2.35553937453e-12
0.798681571851
2.27445268631
4.20264056908
6.2896960941
8.21788397681
9.69365509125
10.4923366634
10.492336663
9.69365509138
8.21788397686
6.28969609411
4.20264056912
2.27445268631
0.798681571853
-2.43837588995e-12
-2.03211752966e-12
0.798681571854
2.27445268631
4.20264056912
6.28969609418
8.21788397689
9.69365509118
10.4923366634
10.492336663
9.69365509137
8.21788397685
6.28969609411
4.20264056912
2.27445268631
0.798681571851
-2.43837588994e-12
3.41268679992e-12
0.798681571826
2.27445268623
4.20264056892
6.28969609386
8.21788397649
9.69365509088
10.492336663
10.4923366626
9.69365509101
8.21788397655
6.28969609388
4.20264056896
2.27445268622
0.798681571827
3.4122635274e-12
3.818501071e-12
0.79868157183
2.27445268623
4.20264056897
6.28969609394
8.21788397656
9.69365509081
10.492336663
10.4923366626
9.693655091
8.21788397661
6.28969609388
4.20264056891
2.27445268622
0.798681571827
3.4122774052e-12
-0.7986815718
1.34191546764e-11
1.47577111443
3.40395899716
5.49101452216
7.4192024048
8.89497351917
9.69365509136
9.69365509099
8.89497351928
7.41920240482
5.49101452215
3.40395899718
1.47577111443
1.36503031101e-11
-0.798681571796
-0.798681571797
1.43445810785e-11
1.47577111443
3.40395899718
5.49101452215
7.41920240491
8.89497351917
9.69365509137
9.693655091
8.89497351928
7.41920240482
5.49101452214
3.40395899718
1.47577111443
1.34189881429e-11
-0.798681571795
-2.27445268619
-1.47577111434
2.07780459506e-11
1.92818788274
4.01524340772
5.94343129039
7.4192024048
8.21788397686
8.21788397661
7.41920240482
5.94343129042
4.0152434078
1.92818788278
2.07747152815e-11
-1.47577111433
-2.27445268619
-2.27445268619
-1.47577111437
2.07772687945e-11
1.92818788278
4.01524340775
5.94343129049
7.41920240474
8.21788397685
8.21788397661
7.41920240482
5.94343129041
4.0152434078
1.92818788278
2.07746042592e-11
-1.47577111433
-2.27445268618
-4.20264056895
-3.40395899708
-1.92818788269
1.22530874338e-11
2.08705552499
4.0152434077
5.49101452208
6.28969609411
6.28969609387
5.49101452214
4.0152434078
2.08705552504
1.22541976568e-11
-1.92818788267
-3.40395899707
-4.20264056894
-4.20264056893
-3.40395899707
-1.92818788267
5.3097970465e-11
2.08705552501
4.01524340769
5.4910145221
6.28969609411
6.28969609388
5.49101452214
4.0152434078
2.08705552504
1.2254641746e-11
-1.92818788267
-3.40395899707
-4.20264056894
-6.28969609394
-5.49101452208
-4.01524340768
-2.08705552492
1.63371538521e-11
1.92818788277
3.40395899714
4.20264056912
4.20264056891
3.40395899718
1.92818788278
5.31013011342e-11
-2.08705552498
-4.01524340765
-5.49101452207
-6.28969609392
-6.28969609392
-5.49101452206
-4.01524340765
-2.08705552493
9.39430755409e-11
1.92818788273
3.40395899713
4.20264056912
4.20264056891
3.40395899718
1.92818788278
1.2254641746e-11
-2.08705552498
-4.01524340765
-5.49101452207
-6.28969609391
-8.21788397668
-7.4192024048
-5.94343129044
-4.01524340767
-1.92818788269
2.76978440184e-11
1.47577111441
2.27445268631
2.27445268622