/*--------------------------------*- C++ -*----------------------------------*\
| =========                 |                                                 |
| \\      /  F ield         | OpenFOAM: The Open Source CFD Toolbox           |
|  \\    /   O peration     | Version:  v2006                                 |
|   \\  /    A nd           | Website:  www.openfoam.com                      |
|    \\/     M anipulation  |                                                 |
\*---------------------------------------------------------------------------*/
FoamFile
{
    version     2.0;
    format      ascii;
    class       volVectorField;
    location    "0";
    object      U;
}
// * * * * * * * * * * * * * * * * * * * * * * * * * * * * * * * * * * * * * //

dimensions      [0 1 -1 0 0 0 0];


internalField   nonuniform List<vector> 
32768
(
(0.333939563122 -0.333939563122 0)
(0.988985579231 -0.321106452986 0)
(1.60602543416 -0.295933401941 0)
(2.16134663232 -0.259387796221 0)
(2.6336084915 -0.212874062958 0)
(3.0046622533 -0.158179698837 0)
(3.26024852974 -0.097406577597 0)
(3.39054528354 -0.0328901762084 0)
(3.39054528355 0.0328901762068 0)
(3.26024852974 0.0974065775971 0)
(3.00466225331 0.158179698836 0)
(2.63360849151 0.212874062958 0)
(2.16134663233 0.259387796221 0)
(1.60602543416 0.295933401941 0)
(0.988985579234 0.321106452986 0)
(0.333939563123 0.333939563122 0)
(-0.333939563124 0.333939563122 0)
(-0.988985579235 0.321106452986 0)
(-1.60602543417 0.295933401941 0)
(-2.16134663233 0.259387796221 0)
(-2.63360849151 0.212874062958 0)
(-3.00466225331 0.158179698836 0)
(-3.26024852974 0.0974065775969 0)
(-3.39054528354 0.0328901762083 0)
(-3.39054528355 -0.0328901762069 0)
(-3.26024852974 -0.0974065775971 0)
(-3.00466225331 -0.158179698837 0)
(-2.63360849151 -0.212874062958 0)
(-2.16134663233 -0.259387796221 0)
(-1.60602543416 -0.295933401941 0)
(-0.988985579233 -0.321106452986 0)
(-0.333939563122 -0.333939563122 0)
(0.321106452986 -0.988985579231 0)
(0.950979418051 -0.950979418051 0)
(1.5443067774 -0.87642765115 0)
(2.07828729334 -0.768195261122 0)
(2.53240039412 -0.630441558018 0)
(2.88919476794 -0.468460339393 0)
(3.13495900711 -0.288476452641 0)
(3.26024852974 -0.0974065775987 0)
(3.26024852974 0.097406577594 0)
(3.13495900711 0.288476452641 0)
(2.88919476795 0.468460339392 0)
(2.53240039413 0.630441558016 0)
(2.07828729335 0.768195261121 0)
(1.5443067774 0.87642765115 0)
(0.950979418053 0.950979418051 0)
(0.321106452987 0.988985579231 0)
(-0.321106452989 0.988985579231 0)
(-0.950979418055 0.950979418051 0)
(-1.5443067774 0.876427651149 0)
(-2.07828729335 0.768195261121 0)
(-2.53240039413 0.630441558016 0)
(-2.88919476795 0.468460339392 0)
(-3.13495900711 0.28847645264 0)
(-3.26024852974 0.0974065775985 0)
(-3.26024852974 -0.0974065775942 0)
(-3.13495900711 -0.288476452641 0)
(-2.88919476795 -0.468460339392 0)
(-2.53240039413 -0.630441558016 0)
(-2.07828729335 -0.768195261121 0)
(-1.5443067774 -0.87642765115 0)
(-0.950979418053 -0.950979418051 0)
(-0.321106452987 -0.988985579231 0)
(0.295933401941 -1.60602543416 0)
(0.87642765115 -1.5443067774 0)
(1.42324127723 -1.42324127723 0)
(1.91536053919 -1.24748141295 0)
(2.33387356978 -1.02378153756 0)
(2.66269714793 -0.760738311822 0)
(2.88919476794 -0.468460339389 0)
(3.0046622533 -0.158179698838 0)
(3.0046622533 0.15817969883 0)
(2.88919476794 0.468460339389 0)
(2.66269714793 0.760738311821 0)
(2.33387356978 1.02378153756 0)
(1.9153605392 1.24748141295 0)
(1.42324127724 1.42324127723 0)
(0.876427651153 1.54430677739 0)
(0.295933401942 1.60602543416 0)
(-0.295933401943 1.60602543416 0)
(-0.876427651154 1.54430677739 0)
(-1.42324127724 1.42324127723 0)
(-1.9153605392 1.24748141294 0)
(-2.33387356978 1.02378153755 0)
(-2.66269714793 0.76073831182 0)
(-2.88919476794 0.468460339388 0)
(-3.0046622533 0.158179698838 0)
(-3.0046622533 -0.158179698831 0)
(-2.88919476794 -0.468460339389 0)
(-2.66269714793 -0.760738311821 0)
(-2.33387356978 -1.02378153756 0)
(-1.9153605392 -1.24748141295 0)
(-1.42324127723 -1.42324127723 0)
(-0.876427651152 -1.54430677739 0)
(-0.295933401942 -1.60602543416 0)
(0.259387796221 -2.16134663232 0)
(0.768195261122 -2.07828729334 0)
(1.24748141295 -1.91536053919 0)
(1.67882755367 -1.67882755367 0)
(2.045657293 -1.37777816675 0)
(2.33387356978 -1.02378153755 0)
(2.53240039412 -0.630441558009 0)
(2.6336084915 -0.212874062959 0)
(2.63360849151 0.212874062949 0)
(2.53240039412 0.63044155801 0)
(2.33387356978 1.02378153755 0)
(2.045657293 1.37777816675 0)
(1.67882755367 1.67882755366 0)
(1.24748141295 1.91536053919 0)
(0.768195261124 2.07828729334 0)
(0.259387796222 2.16134663232 0)
(-0.259387796223 2.16134663232 0)
(-0.768195261125 2.07828729334 0)
(-1.24748141295 1.91536053919 0)
(-1.67882755367 1.67882755366 0)
(-2.045657293 1.37777816675 0)
(-2.33387356978 1.02378153755 0)
(-2.53240039412 0.630441558009 0)
(-2.6336084915 0.212874062959 0)
(-2.63360849151 -0.212874062949 0)
(-2.53240039412 -0.63044155801 0)
(-2.33387356978 -1.02378153755 0)
(-2.045657293 -1.37777816675 0)
(-1.67882755367 -1.67882755366 0)
(-1.24748141295 -1.91536053919 0)
(-0.768195261124 -2.07828729334 0)
(-0.259387796221 -2.16134663232 0)
(0.212874062958 -2.6336084915 0)
(0.630441558018 -2.53240039412 0)
(1.02378153756 -2.33387356978 0)
(1.37777816675 -2.045657293 0)
(1.67882755367 -1.67882755367 0)
(1.91536053919 -1.24748141294 0)
(2.07828729334 -0.768195261112 0)
(2.16134663232 -0.259387796222 0)
(2.16134663233 0.25938779621 0)
(2.07828729334 0.768195261112 0)
(1.9153605392 1.24748141294 0)
(1.67882755367 1.67882755366 0)
(1.37777816676 2.04565729299 0)
(1.02378153756 2.33387356978 0)
(0.63044155802 2.53240039412 0)
(0.212874062959 2.6336084915 0)
(-0.21287406296 2.6336084915 0)
(-0.630441558021 2.53240039412 0)
(-1.02378153756 2.33387356977 0)
(-1.37777816676 2.04565729299 0)
(-1.67882755367 1.67882755366 0)
(-1.9153605392 1.24748141294 0)
(-2.07828729334 0.768195261111 0)
(-2.16134663232 0.259387796222 0)
(-2.16134663233 -0.25938779621 0)
(-2.07828729334 -0.768195261113 0)
(-1.9153605392 -1.24748141294 0)
(-1.67882755367 -1.67882755366 0)
(-1.37777816676 -2.045657293 0)
(-1.02378153756 -2.33387356978 0)
(-0.630441558019 -2.53240039412 0)
(-0.212874062959 -2.6336084915 0)
(0.158179698837 -3.0046622533 0)
(0.468460339393 -2.88919476794 0)
(0.760738311822 -2.66269714793 0)
(1.02378153755 -2.33387356978 0)
(1.24748141294 -1.91536053919 0)
(1.42324127723 -1.42324127723 0)
(1.54430677739 -0.876427651139 0)
(1.60602543415 -0.295933401943 0)
(1.60602543416 0.295933401928 0)
(1.54430677739 0.87642765114 0)
(1.42324127723 1.42324127722 0)
(1.24748141295 1.91536053919 0)
(1.02378153756 2.33387356978 0)
(0.760738311824 2.66269714793 0)
(0.468460339395 2.88919476794 0)
(0.158179698837 3.0046622533 0)
(-0.158179698838 3.0046622533 0)
(-0.468460339395 2.88919476794 0)
(-0.760738311825 2.66269714793 0)
(-1.02378153756 2.33387356977 0)
(-1.24748141295 1.91536053919 0)
(-1.42324127723 1.42324127722 0)
(-1.54430677739 0.876427651139 0)
(-1.60602543415 0.295933401942 0)
(-1.60602543415 -0.295933401929 0)
(-1.54430677739 -0.876427651141 0)
(-1.42324127723 -1.42324127722 0)
(-1.24748141294 -1.91536053919 0)
(-1.02378153756 -2.33387356978 0)
(-0.760738311824 -2.66269714793 0)
(-0.468460339394 -2.88919476794 0)
(-0.158179698837 -3.0046622533 0)
(0.097406577597 -3.26024852974 0)
(0.288476452641 -3.13495900711 0)
(0.468460339389 -2.88919476794 0)
(0.630441558009 -2.53240039412 0)
(0.768195261112 -2.07828729334 0)
(0.876427651139 -1.54430677739 0)
(0.950979418039 -0.950979418039 0)
(0.988985579218 -0.321106452988 0)
(0.988985579218 0.321106452972 0)
(0.950979418039 0.95097941804 0)
(0.87642765114 1.54430677739 0)
(0.768195261114 2.07828729334 0)
(0.630441558011 2.53240039412 0)
(0.46846033939 2.88919476794 0)
(0.288476452641 3.13495900711 0)
(0.0974065775973 3.26024852974 0)
(-0.0974065775977 3.26024852974 0)
(-0.288476452642 3.13495900711 0)
(-0.46846033939 2.88919476794 0)
(-0.630441558011 2.53240039412 0)
(-0.768195261114 2.07828729334 0)
(-0.87642765114 1.54430677739 0)
(-0.950979418039 0.950979418039 0)
(-0.988985579218 0.321106452987 0)
(-0.988985579218 -0.321106452973 0)
(-0.950979418039 -0.950979418041 0)
(-0.87642765114 -1.54430677739 0)
(-0.768195261113 -2.07828729334 0)
(-0.630441558011 -2.53240039412 0)
(-0.46846033939 -2.88919476794 0)
(-0.288476452641 -3.13495900711 0)
(-0.0974065775971 -3.26024852974 0)
(0.0328901762084 -3.39054528354 0)
(0.0974065775987 -3.26024852974 0)
(0.158179698838 -3.0046622533 0)
(0.212874062959 -2.6336084915 0)
(0.259387796222 -2.16134663232 0)
(0.295933401943 -1.60602543415 0)
(0.321106452988 -0.988985579218 0)
(0.333939563123 -0.333939563123 0)
(0.333939563123 0.333939563107 0)
(0.321106452988 0.988985579219 0)
(0.295933401943 1.60602543415 0)
(0.259387796223 2.16134663232 0)
(0.21287406296 2.6336084915 0)
(0.158179698839 3.0046622533 0)
(0.097406577599 3.26024852974 0)
(0.0328901762085 3.39054528354 0)
(-0.0328901762086 3.39054528354 0)
(-0.0974065775991 3.26024852974 0)
(-0.158179698839 3.0046622533 0)
(-0.21287406296 2.6336084915 0)
(-0.259387796223 2.16134663232 0)
(-0.295933401943 1.60602543415 0)
(-0.321106452988 0.988985579217 0)
(-0.333939563123 0.333939563122 0)
(-0.333939563123 -0.333939563107 0)
(-0.321106452988 -0.988985579219 0)
(-0.295933401943 -1.60602543415 0)
(-0.259387796223 -2.16134663232 0)
(-0.21287406296 -2.6336084915 0)
(-0.158179698838 -3.0046622533 0)
(-0.0974065775989 -3.26024852974 0)
(-0.0328901762084 -3.39054528354 0)
(-0.0328901762068 -3.39054528355 0)
(-0.097406577594 -3.26024852974 0)
(-0.15817969883 -3.0046622533 0)
(-0.212874062949 -2.63360849151 0)
(-0.25938779621 -2.16134663233 0)
(-0.295933401928 -1.60602543416 0)
(-0.321106452972 -0.988985579218 0)
(-0.333939563107 -0.333939563123 0)
(-0.333939563107 0.333939563107 0)
(-0.321106452972 0.988985579219 0)
(-0.295933401929 1.60602543415 0)
(-0.25938779621 2.16134663232 0)
(-0.212874062949 2.6336084915 0)
(-0.158179698831 3.0046622533 0)
(-0.0974065775942 3.26024852974 0)
(-0.0328901762069 3.39054528355 0)
(0.032890176207 3.39054528355 0)
(0.0974065775944 3.26024852974 0)
(0.158179698831 3.0046622533 0)
(0.21287406295 2.6336084915 0)
(0.25938779621 2.16134663232 0)
(0.295933401929 1.60602543415 0)
(0.321106452972 0.988985579218 0)
(0.333939563107 0.333939563122 0)
(0.333939563107 -0.333939563108 0)
(0.321106452972 -0.98898557922 0)
(0.295933401929 -1.60602543415 0)
(0.25938779621 -2.16134663232 0)
(0.212874062949 -2.6336084915 0)
(0.158179698831 -3.0046622533 0)
(0.0974065775942 -3.26024852974 0)
(0.0328901762068 -3.39054528355 0)
(-0.0974065775971 -3.26024852974 0)
(-0.288476452641 -3.13495900711 0)
(-0.468460339389 -2.88919476794 0)
(-0.63044155801 -2.53240039412 0)
(-0.768195261112 -2.07828729334 0)
(-0.87642765114 -1.54430677739 0)
(-0.95097941804 -0.950979418039 0)
(-0.988985579219 -0.321106452988 0)
(-0.988985579219 0.321106452972 0)
(-0.95097941804 0.95097941804 0)
(-0.876427651141 1.54430677739 0)
(-0.768195261114 2.07828729334 0)
(-0.630441558012 2.53240039412 0)
(-0.46846033939 2.88919476794 0)
(-0.288476452642 3.13495900711 0)
(-0.0974065775974 3.26024852974 0)
(0.0974065775978 3.26024852974 0)
(0.288476452642 3.13495900711 0)
(0.468460339391 2.88919476794 0)
(0.630441558012 2.53240039412 0)
(0.768195261114 2.07828729334 0)
(0.876427651141 1.54430677739 0)
(0.95097941804 0.950979418039 0)
(0.988985579219 0.321106452987 0)
(0.988985579219 -0.321106452973 0)
(0.95097941804 -0.950979418041 0)
(0.876427651141 -1.54430677739 0)
(0.768195261114 -2.07828729334 0)
(0.630441558011 -2.53240039412 0)
(0.46846033939 -2.88919476794 0)
(0.288476452641 -3.13495900711 0)
(0.0974065775971 -3.26024852974 0)
(-0.158179698836 -3.00466225331 0)
(-0.468460339392 -2.88919476795 0)
(-0.760738311821 -2.66269714793 0)
(-1.02378153755 -2.33387356978 0)
(-1.24748141294 -1.9153605392 0)
(-1.42324127722 -1.42324127723 0)
(-1.54430677739 -0.87642765114 0)
(-1.60602543415 -0.295933401943 0)
(-1.60602543415 0.295933401929 0)
(-1.54430677739 0.876427651141 0)
(-1.42324127723 1.42324127723 0)
(-1.24748141294 1.91536053919 0)
(-1.02378153755 2.33387356978 0)
(-0.760738311822 2.66269714793 0)
(-0.468460339393 2.88919476794 0)
(-0.158179698837 3.00466225331 0)
(0.158179698838 3.00466225331 0)
(0.468460339394 2.88919476794 0)
(0.760738311823 2.66269714793 0)
(1.02378153756 2.33387356978 0)
(1.24748141294 1.91536053919 0)
(1.42324127723 1.42324127722 0)
(1.54430677739 0.876427651139 0)
(1.60602543415 0.295933401942 0)
(1.60602543415 -0.295933401929 0)
(1.54430677739 -0.876427651141 0)
(1.42324127723 -1.42324127723 0)
(1.24748141294 -1.91536053919 0)
(1.02378153755 -2.33387356978 0)
(0.760738311822 -2.66269714793 0)
(0.468460339393 -2.88919476795 0)
(0.158179698837 -3.00466225331 0)
(-0.212874062958 -2.63360849151 0)
(-0.630441558016 -2.53240039413 0)
(-1.02378153756 -2.33387356978 0)
(-1.37777816675 -2.045657293 0)
(-1.67882755366 -1.67882755367 0)
(-1.91536053919 -1.24748141295 0)
(-2.07828729334 -0.768195261114 0)
(-2.16134663232 -0.259387796223 0)
(-2.16134663232 0.25938779621 0)
(-2.07828729334 0.768195261114 0)
(-1.91536053919 1.24748141294 0)
(-1.67882755367 1.67882755367 0)
(-1.37777816675 2.045657293 0)
(-1.02378153756 2.33387356978 0)
(-0.630441558018 2.53240039413 0)
(-0.212874062958 2.63360849151 0)
(0.212874062959 2.63360849151 0)
(0.630441558019 2.53240039413 0)
(1.02378153756 2.33387356978 0)
(1.37777816675 2.045657293 0)
(1.67882755367 1.67882755367 0)
(1.91536053919 1.24748141294 0)
(2.07828729334 0.768195261113 0)
(2.16134663232 0.259387796222 0)
(2.16134663232 -0.259387796211 0)
(2.07828729334 -0.768195261115 0)
(1.91536053919 -1.24748141294 0)
(1.67882755367 -1.67882755367 0)
(1.37777816675 -2.045657293 0)
(1.02378153756 -2.33387356978 0)
(0.630441558017 -2.53240039413 0)
(0.212874062958 -2.63360849151 0)
(-0.259387796221 -2.16134663233 0)
(-0.768195261121 -2.07828729335 0)
(-1.24748141295 -1.9153605392 0)
(-1.67882755366 -1.67882755367 0)
(-2.04565729299 -1.37777816676 0)
(-2.33387356978 -1.02378153756 0)
(-2.53240039412 -0.630441558011 0)
(-2.6336084915 -0.21287406296 0)
(-2.6336084915 0.212874062949 0)
(-2.53240039412 0.630441558012 0)
(-2.33387356978 1.02378153755 0)
(-2.045657293 1.37777816675 0)
(-1.67882755367 1.67882755367 0)
(-1.24748141295 1.91536053919 0)
(-0.768195261123 2.07828729335 0)
(-0.259387796221 2.16134663233 0)
(0.259387796223 2.16134663233 0)
(0.768195261124 2.07828729335 0)
(1.24748141295 1.91536053919 0)
(1.67882755367 1.67882755367 0)
(2.045657293 1.37777816675 0)
(2.33387356978 1.02378153755 0)
(2.53240039412 0.630441558011 0)
(2.6336084915 0.212874062959 0)
(2.6336084915 -0.21287406295 0)
(2.53240039412 -0.630441558012 0)
(2.33387356978 -1.02378153756 0)
(2.045657293 -1.37777816675 0)
(1.67882755367 -1.67882755367 0)
(1.24748141295 -1.9153605392 0)
(0.768195261122 -2.07828729335 0)
(0.259387796221 -2.16134663233 0)
(-0.295933401941 -1.60602543416 0)
(-0.87642765115 -1.5443067774 0)
(-1.42324127723 -1.42324127724 0)
(-1.91536053919 -1.24748141295 0)
(-2.33387356978 -1.02378153756 0)
(-2.66269714793 -0.760738311824 0)
(-2.88919476794 -0.46846033939 0)
(-3.0046622533 -0.158179698839 0)
(-3.0046622533 0.158179698831 0)
(-2.88919476794 0.46846033939 0)
(-2.66269714793 0.760738311822 0)
(-2.33387356978 1.02378153756 0)
(-1.91536053919 1.24748141295 0)
(-1.42324127723 1.42324127723 0)
(-0.876427651152 1.5443067774 0)
(-0.295933401942 1.60602543416 0)
(0.295933401943 1.60602543416 0)
(0.876427651153 1.5443067774 0)
(1.42324127724 1.42324127723 0)
(1.9153605392 1.24748141295 0)
(2.33387356978 1.02378153756 0)
(2.66269714793 0.760738311822 0)
(2.88919476794 0.46846033939 0)
(3.0046622533 0.158179698838 0)
(3.0046622533 -0.158179698831 0)
(2.88919476794 -0.468460339391 0)
(2.66269714793 -0.760738311823 0)
(2.33387356978 -1.02378153756 0)
(1.91536053919 -1.24748141295 0)
(1.42324127723 -1.42324127723 0)
(0.876427651151 -1.5443067774 0)
(0.295933401941 -1.60602543416 0)
(-0.321106452986 -0.988985579234 0)
(-0.950979418051 -0.950979418053 0)
(-1.54430677739 -0.876427651153 0)
(-2.07828729334 -0.768195261124 0)
(-2.53240039412 -0.63044155802 0)
(-2.88919476794 -0.468460339395 0)
(-3.13495900711 -0.288476452641 0)
(-3.26024852974 -0.097406577599 0)
(-3.26024852974 0.0974065775942 0)
(-3.13495900711 0.288476452642 0)
(-2.88919476794 0.468460339393 0)
(-2.53240039413 0.630441558018 0)
(-2.07828729335 0.768195261123 0)
(-1.5443067774 0.876427651152 0)
(-0.950979418053 0.950979418053 0)
(-0.321106452987 0.988985579234 0)
(0.321106452989 0.988985579234 0)
(0.950979418055 0.950979418053 0)
(1.5443067774 0.876427651152 0)
(2.07828729335 0.768195261123 0)
(2.53240039413 0.630441558017 0)
(2.88919476795 0.468460339393 0)
(3.13495900711 0.288476452641 0)
(3.26024852974 0.0974065775988 0)
(3.26024852974 -0.0974065775944 0)
(3.13495900711 -0.288476452642 0)
(2.88919476794 -0.468460339394 0)
(2.53240039412 -0.630441558018 0)
(2.07828729334 -0.768195261123 0)
(1.5443067774 -0.876427651152 0)
(0.950979418053 -0.950979418053 0)
(0.321106452987 -0.988985579234 0)
(-0.333939563122 -0.333939563123 0)
(-0.988985579231 -0.321106452987 0)
(-1.60602543416 -0.295933401942 0)
(-2.16134663232 -0.259387796222 0)
(-2.6336084915 -0.212874062959 0)
(-3.0046622533 -0.158179698837 0)
(-3.26024852974 -0.0974065775973 0)
(-3.39054528354 -0.0328901762085 0)
(-3.39054528355 0.0328901762069 0)
(-3.26024852974 0.0974065775974 0)
(-3.00466225331 0.158179698837 0)
(-2.63360849151 0.212874062958 0)
(-2.16134663233 0.259387796221 0)
(-1.60602543416 0.295933401942 0)
(-0.988985579234 0.321106452987 0)
(-0.333939563123 0.333939563123 0)
(0.333939563124 0.333939563123 0)
(0.988985579235 0.321106452987 0)
(1.60602543417 0.295933401942 0)
(2.16134663233 0.259387796221 0)
(2.63360849151 0.212874062958 0)
(3.00466225331 0.158179698837 0)
(3.26024852974 0.0974065775972 0)
(3.39054528354 0.0328901762084 0)
(3.39054528355 -0.032890176207 0)
(3.26024852974 -0.0974065775974 0)
(3.00466225331 -0.158179698837 0)
(2.63360849151 -0.212874062958 0)
(2.16134663233 -0.259387796222 0)
(1.60602543416 -0.295933401942 0)
(0.988985579233 -0.321106452987 0)
(0.333939563122 -0.333939563123 0)
(-0.333939563122 0.333939563124 0)
(-0.988985579231 0.321106452989 0)
(-1.60602543416 0.295933401943 0)
(-2.16134663232 0.259387796223 0)
(-2.6336084915 0.21287406296 0)
(-3.0046622533 0.158179698838 0)
(-3.26024852974 0.0974065775977 0)
(-3.39054528354 0.0328901762086 0)
(-3.39054528355 -0.032890176207 0)
(-3.26024852974 -0.0974065775978 0)
(-3.00466225331 -0.158179698838 0)
(-2.63360849151 -0.212874062959 0)
(-2.16134663233 -0.259387796223 0)
(-1.60602543416 -0.295933401943 0)
(-0.988985579234 -0.321106452989 0)
(-0.333939563123 -0.333939563124 0)
(0.333939563124 -0.333939563124 0)
(0.988985579235 -0.321106452989 0)
(1.60602543417 -0.295933401943 0)
(2.16134663233 -0.259387796222 0)
(2.63360849151 -0.212874062959 0)
(3.00466225331 -0.158179698837 0)
(3.26024852974 -0.0974065775976 0)
(3.39054528354 -0.0328901762086 0)
(3.39054528355 0.0328901762071 0)
(3.26024852974 0.0974065775978 0)
(3.00466225331 0.158179698838 0)
(2.63360849151 0.212874062959 0)
(2.16134663233 0.259387796223 0)
(1.60602543416 0.295933401943 0)
(0.988985579233 0.321106452989 0)
(0.333939563122 0.333939563124 0)
(-0.321106452986 0.988985579235 0)
(-0.950979418051 0.950979418055 0)
(-1.54430677739 0.876427651154 0)
(-2.07828729334 0.768195261125 0)
(-2.53240039412 0.630441558021 0)
(-2.88919476794 0.468460339395 0)
(-3.13495900711 0.288476452642 0)
(-3.26024852974 0.0974065775991 0)
(-3.26024852974 -0.0974065775944 0)
(-3.13495900711 -0.288476452642 0)
(-2.88919476794 -0.468460339394 0)
(-2.53240039413 -0.630441558019 0)
(-2.07828729335 -0.768195261124 0)
(-1.5443067774 -0.876427651153 0)
(-0.950979418053 -0.950979418055 0)
(-0.321106452987 -0.988985579235 0)
(0.321106452989 -0.988985579235 0)
(0.950979418054 -0.950979418054 0)
(1.5443067774 -0.876427651153 0)
(2.07828729335 -0.768195261124 0)
(2.53240039413 -0.630441558018 0)
(2.88919476795 -0.468460339394 0)
(3.13495900711 -0.288476452642 0)
(3.26024852974 -0.0974065775989 0)
(3.26024852974 0.0974065775946 0)
(3.13495900711 0.288476452642 0)
(2.88919476794 0.468460339394 0)
(2.53240039412 0.630441558019 0)
(2.07828729334 0.768195261124 0)
(1.5443067774 0.876427651153 0)
(0.950979418052 0.950979418055 0)
(0.321106452987 0.988985579235 0)
(-0.295933401941 1.60602543417 0)
(-0.876427651149 1.5443067774 0)
(-1.42324127723 1.42324127724 0)
(-1.91536053919 1.24748141295 0)
(-2.33387356977 1.02378153756 0)
(-2.66269714793 0.760738311825 0)
(-2.88919476794 0.46846033939 0)
(-3.0046622533 0.158179698839 0)
(-3.0046622533 -0.158179698831 0)
(-2.88919476794 -0.468460339391 0)
(-2.66269714793 -0.760738311823 0)
(-2.33387356978 -1.02378153756 0)
(-1.91536053919 -1.24748141295 0)
(-1.42324127723 -1.42324127724 0)
(-0.876427651152 -1.5443067774 0)
(-0.295933401942 -1.60602543417 0)
(0.295933401943 -1.60602543417 0)
(0.876427651153 -1.5443067774 0)
(1.42324127723 -1.42324127723 0)
(1.9153605392 -1.24748141295 0)
(2.33387356978 -1.02378153756 0)
(2.66269714793 -0.760738311822 0)
(2.88919476794 -0.46846033939 0)
(3.0046622533 -0.158179698838 0)
(3.0046622533 0.158179698831 0)
(2.88919476794 0.468460339391 0)
(2.66269714793 0.760738311823 0)
(2.33387356978 1.02378153756 0)
(1.91536053919 1.24748141295 0)
(1.42324127723 1.42324127724 0)
(0.876427651151 1.5443067774 0)
(0.295933401941 1.60602543417 0)
(-0.259387796221 2.16134663233 0)
(-0.768195261121 2.07828729335 0)
(-1.24748141294 1.9153605392 0)
(-1.67882755366 1.67882755367 0)
(-2.04565729299 1.37777816676 0)
(-2.33387356977 1.02378153756 0)
(-2.53240039412 0.630441558011 0)
(-2.6336084915 0.21287406296 0)
(-2.6336084915 -0.21287406295 0)
(-2.53240039412 -0.630441558012 0)
(-2.33387356978 -1.02378153756 0)
(-2.045657293 -1.37777816675 0)
(-1.67882755367 -1.67882755367 0)
(-1.24748141295 -1.9153605392 0)
(-0.768195261123 -2.07828729335 0)
(-0.259387796221 -2.16134663233 0)
(0.259387796222 -2.16134663233 0)
(0.768195261124 -2.07828729335 0)
(1.24748141295 -1.9153605392 0)
(1.67882755367 -1.67882755367 0)
(2.045657293 -1.37777816675 0)
(2.33387356978 -1.02378153755 0)
(2.53240039412 -0.630441558011 0)
(2.6336084915 -0.21287406296 0)
(2.6336084915 0.21287406295 0)
(2.53240039412 0.630441558012 0)
(2.33387356978 1.02378153756 0)
(2.045657293 1.37777816675 0)
(1.67882755367 1.67882755367 0)
(1.24748141295 1.9153605392 0)
(0.768195261122 2.07828729335 0)
(0.259387796221 2.16134663233 0)
(-0.212874062958 2.63360849151 0)
(-0.630441558016 2.53240039413 0)
(-1.02378153755 2.33387356978 0)
(-1.37777816675 2.045657293 0)
(-1.67882755366 1.67882755367 0)
(-1.91536053919 1.24748141295 0)
(-2.07828729334 0.768195261114 0)
(-2.16134663232 0.259387796223 0)
(-2.16134663232 -0.25938779621 0)
(-2.07828729334 -0.768195261114 0)
(-1.91536053919 -1.24748141294 0)
(-1.67882755367 -1.67882755367 0)
(-1.37777816675 -2.045657293 0)
(-1.02378153756 -2.33387356978 0)
(-0.630441558017 -2.53240039413 0)
(-0.212874062958 -2.63360849151 0)
(0.212874062959 -2.63360849151 0)
(0.630441558018 -2.53240039413 0)
(1.02378153756 -2.33387356978 0)
(1.37777816675 -2.045657293 0)
(1.67882755367 -1.67882755367 0)
(1.91536053919 -1.24748141294 0)
(2.07828729334 -0.768195261113 0)
(2.16134663232 -0.259387796222 0)
(2.16134663232 0.259387796211 0)
(2.07828729334 0.768195261115 0)
(1.91536053919 1.24748141294 0)
(1.67882755366 1.67882755367 0)
(1.37777816675 2.045657293 0)
(1.02378153756 2.33387356978 0)
(0.630441558017 2.53240039413 0)
(0.212874062958 2.63360849151 0)
(-0.158179698836 3.00466225331 0)
(-0.468460339392 2.88919476795 0)
(-0.76073831182 2.66269714793 0)
(-1.02378153755 2.33387356978 0)
(-1.24748141294 1.9153605392 0)
(-1.42324127722 1.42324127723 0)
(-1.54430677739 0.87642765114 0)
(-1.60602543415 0.295933401943 0)
(-1.60602543415 -0.295933401929 0)
(-1.54430677739 -0.876427651141 0)
(-1.42324127722 -1.42324127723 0)
(-1.24748141294 -1.91536053919 0)
(-1.02378153755 -2.33387356978 0)
(-0.760738311822 -2.66269714793 0)
(-0.468460339393 -2.88919476795 0)
(-0.158179698837 -3.00466225331 0)
(0.158179698837 -3.00466225331 0)
(0.468460339394 -2.88919476795 0)
(0.760738311822 -2.66269714793 0)
(1.02378153755 -2.33387356978 0)
(1.24748141294 -1.91536053919 0)
(1.42324127722 -1.42324127722 0)
(1.54430677739 -0.87642765114 0)
(1.60602543415 -0.295933401943 0)
(1.60602543415 0.295933401929 0)
(1.54430677739 0.876427651141 0)
(1.42324127722 1.42324127723 0)
(1.24748141294 1.91536053919 0)
(1.02378153755 2.33387356978 0)
(0.760738311821 2.66269714793 0)
(0.468460339393 2.88919476795 0)
(0.158179698836 3.00466225331 0)
(-0.0974065775969 3.26024852974 0)
(-0.28847645264 3.13495900711 0)
(-0.468460339388 2.88919476794 0)
(-0.630441558009 2.53240039412 0)
(-0.768195261111 2.07828729334 0)
(-0.876427651139 1.54430677739 0)
(-0.950979418039 0.950979418039 0)
(-0.988985579217 0.321106452988 0)
(-0.988985579218 -0.321106452972 0)
(-0.950979418039 -0.95097941804 0)
(-0.876427651139 -1.54430677739 0)
(-0.768195261113 -2.07828729334 0)
(-0.630441558011 -2.53240039412 0)
(-0.46846033939 -2.88919476794 0)
(-0.288476452641 -3.13495900711 0)
(-0.0974065775972 -3.26024852974 0)
(0.0974065775976 -3.26024852974 0)
(0.288476452642 -3.13495900711 0)
(0.46846033939 -2.88919476794 0)
(0.630441558011 -2.53240039412 0)
(0.768195261113 -2.07828729334 0)
(0.87642765114 -1.54430677739 0)
(0.950979418039 -0.950979418039 0)
(0.988985579217 -0.321106452987 0)
(0.988985579218 0.321106452973 0)
(0.950979418039 0.950979418041 0)
(0.876427651139 1.54430677739 0)
(0.768195261113 2.07828729334 0)
(0.630441558011 2.53240039412 0)
(0.468460339389 2.88919476794 0)
(0.288476452641 3.13495900711 0)
(0.097406577597 3.26024852974 0)
(-0.0328901762083 3.39054528354 0)
(-0.0974065775985 3.26024852974 0)
(-0.158179698838 3.0046622533 0)
(-0.212874062959 2.6336084915 0)
(-0.259387796222 2.16134663232 0)
(-0.295933401942 1.60602543415 0)
(-0.321106452987 0.988985579218 0)
(-0.333939563122 0.333939563123 0)
(-0.333939563122 -0.333939563107 0)
(-0.321106452987 -0.988985579219 0)
(-0.295933401942 -1.60602543415 0)
(-0.259387796222 -2.16134663232 0)
(-0.212874062959 -2.6336084915 0)
(-0.158179698838 -3.0046622533 0)
(-0.0974065775988 -3.26024852974 0)
(-0.0328901762084 -3.39054528354 0)
(0.0328901762086 -3.39054528354 0)
(0.0974065775989 -3.26024852974 0)
(0.158179698838 -3.0046622533 0)
(0.21287406296 -2.6336084915 0)
(0.259387796222 -2.16134663232 0)
(0.295933401943 -1.60602543415 0)
(0.321106452987 -0.988985579217 0)
(0.333939563122 -0.333939563122 0)
(0.333939563122 0.333939563107 0)
(0.321106452987 0.988985579219 0)
(0.295933401942 1.60602543415 0)
(0.259387796222 2.16134663232 0)
(0.212874062959 2.6336084915 0)
(0.158179698838 3.0046622533 0)
(0.0974065775987 3.26024852974 0)
(0.0328901762084 3.39054528354 0)
(0.0328901762069 3.39054528355 0)
(0.0974065775942 3.26024852974 0)
(0.158179698831 3.0046622533 0)
(0.212874062949 2.63360849151 0)
(0.25938779621 2.16134663233 0)
(0.295933401929 1.60602543415 0)
(0.321106452973 0.988985579218 0)
(0.333939563107 0.333939563123 0)
(0.333939563108 -0.333939563107 0)
(0.321106452973 -0.988985579219 0)
(0.295933401929 -1.60602543415 0)
(0.259387796211 -2.16134663232 0)
(0.21287406295 -2.6336084915 0)
(0.158179698831 -3.0046622533 0)
(0.0974065775944 -3.26024852974 0)
(0.032890176207 -3.39054528355 0)
(-0.0328901762071 -3.39054528355 0)
(-0.0974065775946 -3.26024852974 0)
(-0.158179698831 -3.0046622533 0)
(-0.21287406295 -2.6336084915 0)
(-0.259387796211 -2.16134663232 0)
(-0.295933401929 -1.60602543415 0)
(-0.321106452973 -0.988985579218 0)
(-0.333939563107 -0.333939563122 0)
(-0.333939563108 0.333939563108 0)
(-0.321106452973 0.98898557922 0)
(-0.295933401929 1.60602543415 0)
(-0.259387796211 2.16134663232 0)
(-0.21287406295 2.6336084915 0)
(-0.158179698831 3.0046622533 0)
(-0.0974065775944 3.26024852974 0)
(-0.0328901762069 3.39054528355 0)
(0.0974065775971 3.26024852974 0)
(0.288476452641 3.13495900711 0)
(0.468460339389 2.88919476794 0)
(0.63044155801 2.53240039412 0)
(0.768195261113 2.07828729334 0)
(0.876427651141 1.54430677739 0)
(0.950979418041 0.950979418039 0)
(0.988985579219 0.321106452988 0)
(0.98898557922 -0.321106452972 0)
(0.950979418041 -0.95097941804 0)
(0.876427651141 -1.54430677739 0)
(0.768195261115 -2.07828729334 0)
(0.630441558012 -2.53240039412 0)
(0.468460339391 -2.88919476794 0)
(0.288476452642 -3.13495900711 0)
(0.0974065775974 -3.26024852974 0)
(-0.0974065775978 -3.26024852974 0)
(-0.288476452642 -3.13495900711 0)
(-0.468460339391 -2.88919476794 0)
(-0.630441558012 -2.53240039412 0)
(-0.768195261115 -2.07828729334 0)
(-0.876427651141 -1.54430677739 0)
(-0.950979418041 -0.950979418039 0)
(-0.988985579219 -0.321106452987 0)
(-0.98898557922 0.321106452973 0)
(-0.95097941804 0.95097941804 0)
(-0.876427651141 1.54430677739 0)
(-0.768195261114 2.07828729334 0)
(-0.630441558012 2.53240039412 0)
(-0.46846033939 2.88919476794 0)
(-0.288476452642 3.13495900711 0)
(-0.0974065775972 3.26024852974 0)
(0.158179698837 3.00466225331 0)
(0.468460339392 2.88919476795 0)
(0.760738311821 2.66269714793 0)
(1.02378153755 2.33387356978 0)
(1.24748141294 1.9153605392 0)
(1.42324127722 1.42324127723 0)
(1.54430677739 0.87642765114 0)
(1.60602543415 0.295933401943 0)
(1.60602543415 -0.295933401929 0)
(1.54430677739 -0.876427651141 0)
(1.42324127723 -1.42324127723 0)
(1.24748141294 -1.91536053919 0)
(1.02378153756 -2.33387356978 0)
(0.760738311823 -2.66269714793 0)
(0.468460339394 -2.88919476794 0)
(0.158179698837 -3.00466225331 0)
(-0.158179698838 -3.00466225331 0)
(-0.468460339394 -2.88919476794 0)
(-0.760738311823 -2.66269714793 0)
(-1.02378153756 -2.33387356978 0)
(-1.24748141294 -1.91536053919 0)
(-1.42324127723 -1.42324127722 0)
(-1.54430677739 -0.876427651139 0)
(-1.60602543415 -0.295933401942 0)
(-1.60602543415 0.295933401929 0)
(-1.54430677739 0.876427651141 0)
(-1.42324127723 1.42324127723 0)
(-1.24748141294 1.91536053919 0)
(-1.02378153755 2.33387356978 0)
(-0.760738311822 2.66269714793 0)
(-0.468460339393 2.88919476794 0)