/*--------------------------------*- C++ -*----------------------------------*\
| =========                 |                                                 |
| \\      /  F ield         | OpenFOAM: The Open Source CFD Toolbox           |
|  \\    /   O peration     | Version:  v2006                                 |
|   \\  /    A nd           | Website:  www.openfoam.com                      |
|    \\/     M anipulation  |                                                 |
\*---------------------------------------------------------------------------*/
FoamFile
{
    version     2.0;
    format      ascii;
    class       volVectorField;
    location    "0";
    object      vorticity;
}
// * * * * * * * * * * * * * * * * * * * * * * * * * * * * * * * * * * * * * //

dimensions      [0 0 -1 0 0 0 0];


internalField   nonuniform List<vector> 
32768
(
(-0.0326792466143 -0.0326792466143 0.0653584932285)
(-0.0314234014901 -0.0967818947161 0.193563789434)
(-0.0289599726738 -0.15716526887 0.314330537752)
(-0.0253836283469 -0.211508869898 0.423017739804)
(-0.0208318054186 -0.257724303664 0.515448607336)
(-0.015479427891 -0.294035536984 0.588071073964)
(-0.00953218463006 -0.319047149508 0.63809429901)
(-0.00321862485961 -0.331797958978 0.663595917981)
(0.00321862485936 -0.331797959004 0.663595917994)
(0.00953218463031 -0.319047149508 0.638094299012)
(0.015479427891 -0.294035536984 0.588071073968)
(0.0208318054212 -0.257724303664 0.515448607339)
(0.0253836283495 -0.211508869898 0.423017739803)
(0.0289599726738 -0.15716526887 0.314330537752)
(0.0314234014901 -0.0967818947186 0.193563789437)
(0.0326792466143 -0.0326792466143 0.0653584932283)
(0.0326792466143 0.0326792466117 -0.0653584932258)
(0.0314234014901 0.0967818947161 -0.193563789434)
(0.0289599726738 0.157165268895 -0.314330537777)
(0.0253836283495 0.211508869898 -0.423017739803)
(0.0208318054212 0.257724303664 -0.515448607339)
(0.015479427891 0.294035536984 -0.588071073968)
(0.00953218463006 0.319047149508 -0.638094299008)
(0.00321862485936 0.331797958978 -0.663595917981)
(-0.00321862485936 0.331797959004 -0.663595917994)
(-0.00953218463006 0.319047149508 -0.638094299014)
(-0.0154794278935 0.294035536984 -0.588071073968)
(-0.0208318054186 0.257724303664 -0.515448607336)
(-0.0253836283495 0.211508869898 -0.423017739803)
(-0.0289599726738 0.15716526887 -0.314330537752)
(-0.0314234014901 0.0967818947161 -0.193563789434)
(-0.0326792466143 0.0326792466117 -0.0653584932258)
(-0.0967818947161 -0.0314234014901 0.193563789434)
(-0.0930626207782 -0.0930626207782 0.573252820423)
(-0.0857670025134 -0.151125495744 0.930912067014)
(-0.0751754064419 -0.203380702661 1.25279688492)
(-0.0616948616591 -0.247820103218 1.52653742111)
(-0.0458434179402 -0.282735916188 1.74161398031)
(-0.0282302373819 -0.30678634648 1.88976129097)
(-0.00953218463031 -0.319047149508 1.96528613501)
(0.0095321846298 -0.319047149508 1.96528613499)
(0.0282302373819 -0.30678634648 1.88976129097)
(0.0458434179402 -0.282735916213 1.74161398034)
(0.0616948616591 -0.247820103218 1.52653742113)
(0.0751754064419 -0.203380702661 1.25279688492)
(0.0857670025159 -0.151125495744 0.930912066989)
(0.0930626207807 -0.0930626207782 0.573252820423)
(0.0967818947161 -0.0314234014901 0.193563789434)
(0.0967818947161 0.0314234014927 -0.193563789434)
(0.0930626207807 0.0930626207807 -0.573252820425)
(0.0857670025134 0.151125495744 -0.930912067014)
(0.0751754064419 0.203380702661 -1.25279688492)
(0.0616948616591 0.247820103218 -1.52653742113)
(0.0458434179402 0.282735916213 -1.74161398034)
(0.0282302373794 0.30678634648 -1.88976129096)
(0.00953218463031 0.319047149508 -1.965286135)
(-0.0095321846298 0.319047149508 -1.96528613499)
(-0.0282302373794 0.30678634648 -1.88976129097)
(-0.0458434179402 0.282735916213 -1.74161398034)
(-0.0616948616591 0.247820103218 -1.52653742113)
(-0.0751754064419 0.203380702661 -1.25279688492)
(-0.0857670025159 0.151125495744 -0.930912067014)
(-0.0930626207782 0.0930626207807 -0.573252820423)
(-0.0967818947161 0.0314234014927 -0.193563789431)
(-0.15716526887 -0.0289599726738 0.314330537752)
(-0.151125495744 -0.0857670025134 0.930912067014)
(-0.139278054544 -0.139278054544 1.5117191676)
(-0.122078235841 -0.187436729039 2.03443174831)
(-0.100187018966 -0.228392315185 2.47896225791)
(-0.0744456711475 -0.260570912714 2.82822763811)
(-0.0458434179402 -0.282735916188 3.0688058163)
(-0.015479427891 -0.294035536984 3.19145150803)
(0.0154794278884 -0.294035536984 3.19145150795)
(0.0458434179402 -0.282735916188 3.06880581632)
(0.07444567115 -0.260570912714 2.82822763816)
(0.100187018974 -0.228392315159 2.47896225794)
(0.122078235841 -0.187436729064 2.03443174833)
(0.139278054544 -0.139278054569 1.51171916757)
(0.151125495719 -0.0857670025159 0.930912067014)
(0.15716526887 -0.0289599726738 0.314330537777)
(0.15716526887 0.0289599726738 -0.31433053778)
(0.151125495719 0.0857670025159 -0.930912067017)
(0.139278054544 0.139278054569 -1.51171916759)
(0.122078235815 0.187436729064 -2.03443174836)
(0.100187018951 0.228392315159 -2.47896225792)
(0.0744456711475 0.260570912689 -2.82822763814)
(0.0458434179402 0.282735916188 -3.0688058163)
(0.015479427891 0.294035536984 -3.19145150803)
(-0.015479427891 0.294035536984 -3.19145150795)
(-0.0458434179402 0.282735916188 -3.06880581632)
(-0.0744456711475 0.260570912714 -2.82822763816)
(-0.100187018974 0.228392315159 -2.47896225794)
(-0.122078235841 0.187436729064 -2.03443174833)
(-0.139278054544 0.139278054544 -1.51171916757)
(-0.151125495719 0.0857670025159 -0.930912067014)
(-0.15716526887 0.0289599726763 -0.31433053778)
(-0.211508869898 -0.0253836283469 0.423017739804)
(-0.203380702661 -0.0751754064419 1.25279688492)
(-0.187436729039 -0.122078235841 2.03443174831)
(-0.164289667068 -0.164289667068 2.73788454058)
(-0.134829045311 -0.200187538535 3.33612196535)
(-0.100187018951 -0.228392315185 3.80615409387)
(-0.0616948616565 -0.247820103218 4.1299178551)
(-0.0208318054186 -0.257724303664 4.29497118935)
(0.0208318054186 -0.257724303689 4.29497118924)
(0.0616948616591 -0.247820103218 4.12991785513)
(0.100187018958 -0.228392315159 3.80615409388)
(0.134829045311 -0.200187538535 3.33612196533)
(0.164289667068 -0.164289667068 2.73788454057)
(0.187436729039 -0.122078235815 2.03443174836)
(0.203380702661 -0.0751754064419 1.25279688492)
(0.211508869898 -0.0253836283495 0.423017739803)
(0.211508869898 0.0253836283469 -0.423017739803)
(0.203380702661 0.0751754064419 -1.25279688492)
(0.187436729064 0.122078235815 -2.03443174836)
(0.164289667068 0.164289667068 -2.73788454057)
(0.134829045311 0.200187538535 -3.33612196533)
(0.100187018961 0.228392315159 -3.80615409388)
(0.0616948616591 0.247820103218 -4.1299178551)
(0.0208318054212 0.257724303664 -4.29497118935)
(-0.0208318054186 0.257724303689 -4.29497118924)
(-0.0616948616565 0.247820103218 -4.12991785513)
(-0.100187018956 0.228392315159 -3.80615409388)
(-0.134829045311 0.200187538535 -3.33612196533)
(-0.164289667068 0.164289667068 -2.73788454057)
(-0.187436729039 0.122078235815 -2.03443174833)
(-0.203380702661 0.0751754064419 -1.25279688492)
(-0.211508869898 0.0253836283469 -0.423017739803)
(-0.257724303664 -0.0208318054186 0.515448607336)
(-0.247820103218 -0.0616948616591 1.52653742111)
(-0.228392315185 -0.100187018966 2.47896225791)
(-0.200187538535 -0.134829045311 3.33612196535)
(-0.164289667068 -0.164289667068 4.06507637657)
(-0.122078235815 -0.187436729039 4.63781218232)
(-0.0751754064419 -0.203380702635 5.03231946684)
(-0.0253836283469 -0.211508869898 5.23343753652)
(0.0253836283469 -0.211508869924 5.23343753641)
(0.0751754064393 -0.203380702635 5.03231946687)
(0.122078235815 -0.187436729064 4.63781218233)
(0.164289667068 -0.164289667068 4.06507637652)
(0.200187538535 -0.134829045311 3.33612196534)
(0.228392315185 -0.100187018961 2.47896225792)
(0.247820103218 -0.0616948616591 1.52653742111)
(0.257724303664 -0.0208318054186 0.515448607338)
(0.257724303664 0.0208318054186 -0.515448607338)
(0.247820103218 0.0616948616591 -1.52653742113)
(0.228392315159 0.100187018958 -2.47896225792)
(0.200187538535 0.134829045311 -3.33612196532)
(0.164289667068 0.164289667068 -4.06507637652)
(0.122078235841 0.187436729064 -4.63781218233)
(0.0751754064393 0.203380702635 -5.03231946684)
(0.0253836283495 0.211508869898 -5.23343753651)
(-0.0253836283469 0.211508869924 -5.23343753644)
(-0.0751754064419 0.203380702635 -5.03231946687)
(-0.122078235815 0.187436729064 -4.63781218233)
(-0.164289667068 0.164289667068 -4.06507637657)
(-0.20018753856 0.134829045311 -3.33612196534)
(-0.228392315185 0.100187018961 -2.4789622579)
(-0.247820103218 0.0616948616591 -1.52653742111)
(-0.257724303664 0.0208318054212 -0.515448607335)
(-0.294035536984 -0.015479427891 0.588071073964)
(-0.282735916188 -0.0458434179402 1.74161398031)
(-0.260570912714 -0.0744456711475 2.82822763811)
(-0.228392315185 -0.100187018951 3.80615409387)
(-0.187436729039 -0.122078235815 4.63781218232)
(-0.139278054544 -0.139278054544 5.29124174947)
(-0.0857670025134 -0.151125495744 5.7413318636)
(-0.0289599726738 -0.15716526887 5.97078581407)
(0.0289599726713 -0.15716526887 5.97078581398)
(0.0857670025134 -0.151125495744 5.74133186361)
(0.139278054544 -0.139278054544 5.29124174953)
(0.187436729064 -0.122078235841 4.63781218234)
(0.228392315185 -0.100187018971 3.80615409389)
(0.260570912714 -0.0744456711475 2.8282276381)
(0.282735916188 -0.0458434179427 1.74161398031)
(0.294035536984 -0.015479427891 0.588071073964)
(0.294035536984 0.015479427891 -0.588071073965)
(0.282735916188 0.0458434179402 -1.74161398031)
(0.260570912714 0.07444567115 -2.82822763813)
(0.228392315159 0.100187018969 -3.80615409389)
(0.187436729064 0.122078235841 -4.63781218231)
(0.139278054544 0.139278054544 -5.29124174954)
(0.0857670025134 0.151125495744 -5.74133186358)
(0.0289599726738 0.15716526887 -5.97078581407)
(-0.0289599726738 0.15716526887 -5.97078581398)
(-0.0857670025134 0.151125495744 -5.74133186361)
(-0.139278054544 0.139278054544 -5.29124174953)
(-0.187436729064 0.122078235815 -4.63781218234)
(-0.228392315185 0.100187018971 -3.80615409389)
(-0.260570912714 0.07444567115 -2.8282276381)
(-0.282735916188 0.0458434179402 -1.74161398031)
(-0.294035536984 0.015479427891 -0.588071073964)
(-0.319047149508 -0.00953218463006 0.63809429901)
(-0.30678634648 -0.0282302373819 1.88976129097)
(-0.282735916188 -0.0458434179402 3.0688058163)
(-0.247820103218 -0.0616948616565 4.1299178551)
(-0.203380702635 -0.0751754064419 5.03231946684)
(-0.151125495744 -0.0857670025134 5.7413318636)
(-0.0930626207782 -0.0930626207782 6.22970809663)
(-0.0314234014927 -0.0967818947161 6.47868014126)
(0.0314234014901 -0.0967818947135 6.47868014117)
(0.0930626207782 -0.0930626207782 6.22970809667)
(0.151125495744 -0.0857670025134 5.74133186364)
(0.203380702661 -0.0751754064419 5.03231946686)
(0.247820103218 -0.0616948616591 4.12991785511)
(0.282735916188 -0.0458434179402 3.0688058163)
(0.30678634648 -0.0282302373794 1.88976129097)
(0.319047149508 -0.00953218463006 0.638094299008)
(0.319047149508 0.00953218463006 -0.63809429901)
(0.30678634648 0.0282302373819 -1.88976129097)
(0.282735916188 0.0458434179402 -3.0688058163)
(0.247820103218 0.0616948616565 -4.12991785511)
(0.203380702661 0.0751754064419 -5.03231946686)
(0.151125495744 0.0857670025134 -5.74133186364)
(0.0930626207782 0.0930626207756 -6.22970809663)
(0.0314234014901 0.0967818947161 -6.47868014127)
(-0.0314234014901 0.0967818947135 -6.47868014114)
(-0.0930626207782 0.0930626207782 -6.22970809666)
(-0.151125495744 0.0857670025134 -5.74133186364)
(-0.203380702661 0.0751754064393 -5.03231946683)
(-0.247820103218 0.0616948616591 -4.12991785511)
(-0.282735916188 0.0458434179402 -3.0688058163)
(-0.30678634648 0.0282302373794 -1.88976129097)
(-0.319047149508 0.00953218463006 -0.638094299008)
(-0.331797958978 -0.00321862485961 0.663595917981)
(-0.319047149508 -0.00953218463031 1.96528613501)
(-0.294035536984 -0.015479427891 3.19145150803)
(-0.257724303664 -0.0208318054186 4.29497118935)
(-0.211508869898 -0.0253836283469 5.23343753652)
(-0.15716526887 -0.0289599726738 5.97078581407)
(-0.0967818947161 -0.0314234014927 6.47868014126)
(-0.0326792466117 -0.0326792466117 6.73760242405)
(0.0326792466117 -0.0326792466117 6.73760242392)
(0.0967818947161 -0.0314234014927 6.47868014131)
(0.15716526887 -0.0289599726738 5.97078581411)
(0.211508869924 -0.0253836283495 5.23343753652)
(0.257724303664 -0.0208318054212 4.29497118934)
(0.294035536984 -0.0154794278935 3.19145150803)
(0.319047149508 -0.00953218463031 1.96528613501)
(0.331797958978 -0.00321862485961 0.663595917981)
(0.331797958978 0.00321862485936 -0.663595917982)
(0.319047149508 0.00953218463031 -1.96528613501)
(0.294035536984 0.0154794278935 -3.19145150803)
(0.257724303664 0.0208318054186 -4.29497118935)
(0.211508869924 0.0253836283495 -5.23343753652)
(0.157165268895 0.0289599726738 -5.97078581412)
(0.0967818947161 0.0314234014927 -6.47868014127)
(0.0326792466117 0.0326792466117 -6.73760242405)
(-0.0326792466092 0.0326792466117 -6.73760242392)
(-0.0967818947161 0.0314234014927 -6.47868014131)
(-0.15716526887 0.0289599726738 -5.97078581411)
(-0.211508869924 0.0253836283495 -5.23343753652)
(-0.257724303664 0.0208318054212 -4.29497118934)
(-0.294035536984 0.015479427891 -3.19145150803)
(-0.319047149508 0.00953218463031 -1.96528613501)
(-0.331797958978 0.00321862485936 -0.66359591798)
(-0.331797959004 0.00321862485936 0.663595917994)
(-0.319047149508 0.0095321846298 1.96528613499)
(-0.294035536984 0.0154794278884 3.19145150795)
(-0.257724303689 0.0208318054186 4.29497118924)
(-0.211508869924 0.0253836283469 5.23343753641)
(-0.15716526887 0.0289599726713 5.97078581398)
(-0.0967818947135 0.0314234014901 6.47868014117)
(-0.0326792466117 0.0326792466117 6.73760242392)
(0.0326792466117 0.0326792466117 6.7376024238)
(0.0967818947161 0.0314234014901 6.47868014118)
(0.15716526887 0.0289599726738 5.970785814)
(0.211508869924 0.0253836283469 5.23343753642)
(0.257724303664 0.0208318054186 4.29497118926)
(0.294035536984 0.015479427891 3.19145150797)
(0.319047149508 0.0095321846298 1.965286135)
(0.331797959004 0.00321862485936 0.663595917993)
(0.331797959004 -0.00321862485936 -0.663595917995)
(0.319047149508 -0.00953218463006 -1.965286135)
(0.294035536984 -0.015479427891 -3.19145150797)
(0.257724303664 -0.0208318054186 -4.29497118926)
(0.211508869924 -0.0253836283469 -5.23343753642)
(0.157165268895 -0.0289599726738 -5.970785814)
(0.0967818947161 -0.0314234014901 -6.47868014115)
(0.0326792466117 -0.0326792466117 -6.73760242393)
(-0.0326792466117 -0.0326792466117 -6.7376024238)
(-0.0967818947161 -0.0314234014901 -6.47868014118)
(-0.15716526887 -0.0289599726738 -5.970785814)
(-0.211508869898 -0.0253836283469 -5.23343753642)
(-0.257724303664 -0.0208318054186 -4.29497118926)
(-0.294035536984 -0.015479427891 -3.19145150797)
(-0.319047149508 -0.00953218463006 -1.96528613499)
(-0.331797959004 -0.00321862485936 -0.663595917992)
(-0.319047149508 0.00953218463031 0.638094299012)
(-0.30678634648 0.0282302373819 1.88976129097)
(-0.282735916188 0.0458434179402 3.06880581632)
(-0.247820103218 0.0616948616591 4.12991785513)
(-0.203380702635 0.0751754064393 5.03231946687)
(-0.151125495744 0.0857670025134 5.74133186361)
(-0.0930626207782 0.0930626207782 6.22970809667)
(-0.0314234014927 0.0967818947161 6.47868014131)
(0.0314234014901 0.0967818947161 6.47868014118)
(0.0930626207782 0.0930626207782 6.22970809671)
(0.151125495744 0.0857670025134 5.74133186368)
(0.203380702661 0.0751754064419 5.03231946687)
(0.247820103218 0.0616948616591 4.12991785512)
(0.282735916188 0.0458434179402 3.06880581631)
(0.30678634648 0.0282302373819 1.88976129098)
(0.319047149508 0.00953218463031 0.638094299012)
(0.319047149508 -0.00953218463031 -0.638094299015)
(0.30678634648 -0.0282302373819 -1.88976129098)
(0.282735916188 -0.0458434179427 -3.06880581631)
(0.247820103218 -0.0616948616591 -4.12991785514)
(0.203380702661 -0.0751754064393 -5.03231946687)
(0.151125495744 -0.0857670025134 -5.74133186368)
(0.0930626207782 -0.0930626207782 -6.22970809667)
(0.0314234014901 -0.0967818947161 -6.47868014131)
(-0.0314234014901 -0.0967818947161 -6.47868014118)
(-0.0930626207782 -0.0930626207782 -6.2297080967)
(-0.151125495744 -0.0857670025159 -5.74133186367)
(-0.203380702661 -0.0751754064419 -5.03231946687)
(-0.247820103218 -0.0616948616565 -4.12991785512)
(-0.282735916188 -0.0458434179402 -3.06880581631)
(-0.30678634648 -0.0282302373794 -1.88976129098)
(-0.319047149508 -0.00953218463006 -0.638094299012)
(-0.294035536984 0.015479427891 0.588071073968)
(-0.282735916213 0.0458434179402 1.74161398034)
(-0.260570912714 0.07444567115 2.82822763816)
(-0.228392315159 0.100187018958 3.80615409388)
(-0.187436729064 0.122078235815 4.63781218233)
(-0.139278054544 0.139278054544 5.29124174953)
(-0.0857670025134 0.151125495744 5.74133186364)
(-0.0289599726738 0.15716526887 5.97078581411)
(0.0289599726738 0.15716526887 5.970785814)
(0.0857670025134 0.151125495744 5.74133186368)
(0.139278054569 0.139278054569 5.29124174954)
(0.187436729064 0.122078235815 4.63781218235)
(0.228392315185 0.100187018951 3.80615409389)
(0.260570912714 0.0744456711475 2.82822763812)
(0.282735916188 0.0458434179402 1.74161398034)
(0.294035536984 0.015479427891 0.588071073991)
(0.294035536984 -0.0154794278935 -0.588071073993)
(0.282735916188 -0.0458434179402 -1.74161398034)
(0.260570912714 -0.0744456711475 -2.82822763812)
(0.228392315185 -0.100187018976 -3.80615409389)
(0.187436729064 -0.122078235815 -4.63781218238)
(0.139278054544 -0.139278054569 -5.29124174955)
(0.0857670025134 -0.151125495744 -5.74133186362)
(0.0289599726738 -0.15716526887 -5.97078581411)
(-0.0289599726713 -0.15716526887 -5.970785814)
(-0.0857670025134 -0.151125495744 -5.74133186368)
(-0.139278054569 -0.139278054569 -5.29124174954)
(-0.187436729064 -0.122078235815 -4.63781218235)
(-0.228392315185 -0.100187018951 -3.80615409389)
(-0.260570912714 -0.0744456711475 -2.82822763815)
(-0.282735916213 -0.0458434179402 -1.74161398034)
(-0.294035536984 -0.015479427891 -0.588071073966)
(-0.257724303664 0.0208318054212 0.515448607339)
(-0.247820103218 0.0616948616591 1.52653742113)
(-0.228392315159 0.100187018974 2.47896225794)
(-0.200187538535 0.134829045311 3.33612196533)
(-0.164289667068 0.164289667068 4.06507637652)
(-0.122078235841 0.187436729064 4.63781218234)
(-0.0751754064419 0.203380702661 5.03231946686)
(-0.0253836283495 0.211508869924 5.23343753652)
(0.0253836283469 0.211508869924 5.23343753642)
(0.0751754064419 0.203380702661 5.03231946687)
(0.122078235815 0.187436729064 4.63781218235)
(0.164289667068 0.164289667068 4.06507637657)
(0.200187538535 0.134829045311 3.33612196534)
(0.228392315159 0.100187018969 2.47896225793)
(0.247820103218 0.0616948616591 1.52653742113)
(0.257724303664 0.0208318054186 0.515448607335)
(0.257724303664 -0.0208318054186 -0.515448607338)
(0.247820103218 -0.0616948616591 -1.52653742113)
(0.228392315185 -0.100187018966 -2.47896225793)
(0.200187538535 -0.134829045311 -3.33612196532)
(0.164289667068 -0.164289667068 -4.06507637657)
(0.122078235815 -0.187436729064 -4.63781218235)
(0.0751754064419 -0.203380702661 -5.03231946684)
(0.0253836283469 -0.211508869924 -5.23343753652)
(-0.0253836283469 -0.211508869924 -5.23343753642)
(-0.0751754064419 -0.203380702661 -5.03231946687)
(-0.122078235815 -0.187436729064 -4.63781218235)
(-0.164289667068 -0.164289667068 -4.06507637657)
(-0.200187538535 -0.134829045311 -3.33612196534)
(-0.228392315159 -0.100187018969 -2.47896225793)
(-0.247820103218 -0.0616948616591 -1.52653742113)
(-0.257724303664 -0.0208318054186 -0.515448607335)
(-0.211508869898 0.0253836283495 0.423017739803)
(-0.203380702661 0.0751754064419 1.25279688492)
(-0.187436729064 0.122078235841 2.03443174833)
(-0.164289667068 0.164289667068 2.73788454057)
(-0.134829045311 0.200187538535 3.33612196534)
(-0.100187018971 0.228392315185 3.80615409389)
(-0.0616948616591 0.247820103218 4.12991785511)
(-0.0208318054212 0.257724303664 4.29497118934)
(0.0208318054186 0.257724303664 4.29497118926)
(0.0616948616591 0.247820103218 4.12991785512)
(0.100187018951 0.228392315185 3.80615409389)
(0.134829045311 0.200187538535 3.33612196534)
(0.164289667068 0.164289667068 2.73788454056)
(0.187436729039 0.122078235841 2.03443174833)
(0.203380702661 0.0751754064419 1.25279688494)
(0.211508869898 0.0253836283469 0.423017739804)
(0.211508869898 -0.0253836283495 -0.423017739804)
(0.203380702661 -0.0751754064419 -1.25279688494)
(0.187436729039 -0.122078235815 -2.03443174835)
(0.164289667068 -0.164289667068 -2.73788454059)
(0.134829045311 -0.200187538535 -3.33612196534)
(0.100187018953 -0.228392315185 -3.80615409389)
(0.0616948616591 -0.247820103218 -4.12991785509)
(0.0208318054186 -0.257724303664 -4.29497118935)
(-0.0208318054186 -0.257724303664 -4.29497118926)
(-0.0616948616591 -0.247820103218 -4.12991785514)
(-0.100187018976 -0.228392315185 -3.80615409389)
(-0.134829045311 -0.200187538535 -3.33612196532)
(-0.164289667068 -0.164289667068 -2.73788454059)
(-0.187436729064 -0.122078235841 -2.03443174833)
(-0.203380702661 -0.0751754064419 -1.25279688492)
(-0.211508869898 -0.0253836283495 -0.423017739802)
(-0.15716526887 0.0289599726738 0.314330537752)
(-0.151125495744 0.0857670025159 0.930912066989)
(-0.139278054569 0.139278054544 1.51171916757)
(-0.122078235815 0.187436729039 2.03443174836)
(-0.100187018961 0.228392315185 2.47896225792)
(-0.0744456711475 0.260570912714 2.8282276381)
(-0.0458434179402 0.282735916188 3.0688058163)
(-0.0154794278935 0.294035536984 3.19145150803)
(0.015479427891 0.294035536984 3.19145150797)
(0.0458434179402 0.282735916188 3.06880581631)
(0.0744456711475 0.260570912714 2.82822763812)
(0.100187018969 0.228392315159 2.47896225793)
(0.122078235841 0.187436729039 2.03443174833)
(0.139278054544 0.139278054544 1.51171916759)
(0.151125495744 0.0857670025159 0.930912067014)
(0.15716526887 0.0289599726738 0.314330537753)
(0.15716526887 -0.0289599726738 -0.314330537753)
(0.151125495744 -0.0857670025134 -0.930912067017)
(0.139278054544 -0.139278054569 -1.51171916759)
(0.122078235841 -0.187436729064 -2.03443174833)
(0.100187018971 -0.228392315159 -2.47896225793)
(0.07444567115 -0.260570912714 -2.82822763815)
(0.0458434179427 -0.282735916188 -3.06880581629)
(0.015479427891 -0.294035536984 -3.19145150803)
(-0.015479427891 -0.294035536984 -3.19145150797)
(-0.0458434179427 -0.282735916188 -3.06880581631)
(-0.07444567115 -0.260570912714 -2.82822763812)
(-0.100187018969 -0.228392315185 -2.4789622579)
(-0.122078235841 -0.187436729039 -2.0344317483)
(-0.139278054544 -0.139278054544 -1.51171916759)
(-0.151125495744 -0.0857670025134 -0.930912067017)
(-0.15716526887 -0.0289599726738 -0.314330537753)
(-0.0967818947186 0.0314234014901 0.193563789437)
(-0.0930626207782 0.0930626207807 0.573252820423)
(-0.0857670025159 0.151125495719 0.930912067014)
(-0.0751754064419 0.203380702661 1.25279688492)
(-0.0616948616591 0.247820103218 1.52653742111)
(-0.0458434179427 0.282735916188 1.74161398031)
(-0.0282302373794 0.30678634648 1.88976129097)
(-0.00953218463031 0.319047149508 1.96528613501)
(0.0095321846298 0.319047149508 1.965286135)
(0.0282302373819 0.30678634648 1.88976129098)
(0.0458434179402 0.282735916188 1.74161398034)
(0.0616948616591 0.247820103218 1.52653742113)
(0.0751754064419 0.203380702661 1.25279688494)
(0.0857670025159 0.151125495744 0.930912067014)
(0.0930626207782 0.0930626207782 0.573252820428)
(0.0967818947186 0.0314234014901 0.193563789436)
(0.0967818947186 -0.0314234014927 -0.193563789436)
(0.0930626207782 -0.0930626207807 -0.573252820428)
(0.0857670025159 -0.151125495744 -0.930912067014)
(0.0751754064419 -0.203380702661 -1.25279688492)
(0.0616948616591 -0.247820103218 -1.52653742113)
(0.0458434179402 -0.282735916213 -1.74161398034)
(0.0282302373794 -0.30678634648 -1.88976129097)
(0.00953218463031 -0.319047149508 -1.96528613501)
(-0.0095321846298 -0.319047149508 -1.965286135)
(-0.0282302373819 -0.30678634648 -1.88976129098)
(-0.0458434179427 -0.282735916188 -1.74161398034)
(-0.0616948616591 -0.247820103193 -1.52653742113)
(-0.0751754064419 -0.203380702635 -1.25279688494)
(-0.0857670025134 -0.151125495744 -0.930912067014)
(-0.0930626207782 -0.0930626207807 -0.573252820428)
(-0.0967818947186 -0.0314234014927 -0.193563789436)
(-0.0326792466143 0.0326792466143 0.0653584932283)
(-0.0314234014901 0.0967818947161 0.193563789434)
(-0.0289599726738 0.15716526887 0.314330537777)
(-0.0253836283495 0.211508869898 0.423017739803)
(-0.0208318054186 0.257724303664 0.515448607338)
(-0.015479427891 0.294035536984 0.588071073964)
(-0.00953218463006 0.319047149508 0.638094299008)
(-0.00321862485961 0.331797958978 0.663595917981)
(0.00321862485936 0.331797959004 0.663595917993)
(0.00953218463031 0.319047149508 0.638094299012)
(0.015479427891 0.294035536984 0.588071073991)
(0.0208318054186 0.257724303664 0.515448607335)
(0.0253836283469 0.211508869898 0.423017739804)
(0.0289599726738 0.15716526887 0.314330537753)
(0.0314234014901 0.0967818947186 0.193563789436)
(0.0326792466143 0.0326792466143 0.0653584932282)
(0.0326792466143 -0.0326792466117 -0.0653584932256)
(0.0314234014927 -0.0967818947161 -0.193563789434)
(0.0289599726738 -0.157165268895 -0.314330537779)
(0.0253836283469 -0.211508869898 -0.423017739804)
(0.0208318054186 -0.257724303664 -0.515448607335)
(0.015479427891 -0.294035536984 -0.588071073966)
(0.00953218463006 -0.319047149508 -0.638094299008)
(0.00321862485936 -0.331797958978 -0.663595917981)
(-0.00321862485936 -0.331797959004 -0.663595917993)
(-0.00953218463006 -0.319047149508 -0.638094299012)
(-0.015479427891 -0.294035536984 -0.588071073991)
(-0.0208318054186 -0.257724303664 -0.515448607363)
(-0.0253836283495 -0.211508869898 -0.42301773983)
(-0.0289599726738 -0.15716526887 -0.314330537751)
(-0.0314234014901 -0.0967818947161 -0.193563789434)
(-0.0326792466143 -0.0326792466117 -0.0653584932256)
(0.0326792466117 0.0326792466143 -0.0653584932258)
(0.0314234014927 0.0967818947161 -0.193563789434)
(0.0289599726738 0.15716526887 -0.31433053778)
(0.0253836283469 0.211508869898 -0.423017739803)
(0.0208318054186 0.257724303664 -0.515448607338)
(0.015479427891 0.294035536984 -0.588071073965)
(0.00953218463006 0.319047149508 -0.63809429901)
(0.00321862485936 0.331797958978 -0.663595917982)
(-0.00321862485936 0.331797959004 -0.663595917995)
(-0.00953218463031 0.319047149508 -0.638094299015)
(-0.0154794278935 0.294035536984 -0.588071073993)
(-0.0208318054186 0.257724303664 -0.515448607338)
(-0.0253836283495 0.211508869898 -0.423017739804)
(-0.0289599726738 0.15716526887 -0.314330537753)
(-0.0314234014927 0.0967818947186 -0.193563789436)
(-0.0326792466117 0.0326792466143 -0.0653584932256)
(-0.0326792466117 -0.0326792466117 0.0653584932231)
(-0.0314234014927 -0.0967818947161 0.193563789436)
(-0.0289599726738 -0.157165268895 0.314330537781)
(-0.0253836283469 -0.211508869898 0.423017739804)
(-0.0208318054186 -0.257724303664 0.515448607338)
(-0.015479427891 -0.294035536984 0.588071073968)
(-0.00953218463006 -0.319047149508 0.638094299008)
(-0.00321862485961 -0.331797958978 0.663595917982)
(0.00321862485936 -0.331797959004 0.663595917995)
(0.00953218463006 -0.319047149508 0.638094299014)
(0.015479427891 -0.294035536984 0.588071073993)
(0.0208318054186 -0.257724303664 0.515448607363)
(0.0253836283495 -0.211508869898 0.42301773983)
(0.0289599726738 -0.15716526887 0.314330537753)
(0.0314234014927 -0.0967818947161 0.193563789436)
(0.0326792466117 -0.0326792466117 0.0653584932231)
(0.0967818947161 0.0314234014901 -0.193563789434)
(0.0930626207807 0.0930626207807 -0.573252820425)
(0.0857670025159 0.151125495719 -0.930912067017)
(0.0751754064419 0.203380702661 -1.25279688492)
(0.0616948616591 0.247820103218 -1.52653742113)
(0.0458434179402 0.282735916188 -1.74161398031)
(0.0282302373819 0.30678634648 -1.88976129097)
(0.00953218463031 0.319047149508 -1.96528613501)
(-0.00953218463006 0.319047149508 -1.965286135)
(-0.0282302373819 0.30678634648 -1.88976129098)
(-0.0458434179402 0.282735916188 -1.74161398034)
(-0.0616948616591 0.247820103218 -1.52653742113)
(-0.0751754064419 0.203380702661 -1.25279688494)
(-0.0857670025134 0.151125495744 -0.930912067017)
(-0.0930626207807 0.0930626207782 -0.573252820428)
(-0.0967818947161 0.0314234014927 -0.193563789434)
(-0.0967818947161 -0.0314234014927 0.193563789436)
(-0.0930626207782 -0.0930626207782 0.573252820428)
(-0.0857670025159 -0.151125495744 0.93091206704)
(-0.0751754064419 -0.203380702661 1.25279688492)
(-0.0616948616591 -0.247820103218 1.52653742113)
(-0.0458434179427 -0.282735916213 1.74161398034)
(-0.0282302373819 -0.30678634648 1.88976129097)
(-0.00953218463031 -0.319047149508 1.96528613501)
(0.00953218463006 -0.319047149508 1.965286135)
(0.0282302373794 -0.30678634648 1.88976129098)
(0.0458434179402 -0.282735916188 1.74161398034)
(0.0616948616591 -0.247820103218 1.52653742113)
(0.0751754064419 -0.203380702635 1.25279688494)
(0.0857670025134 -0.151125495744 0.930912067017)
(0.0930626207807 -0.0930626207782 0.573252820428)
(0.0967818947161 -0.0314234014927 0.193563789434)
(0.157165268895 0.0289599726738 -0.314330537777)
(0.151125495744 0.0857670025134 -0.930912067014)
(0.139278054569 0.139278054544 -1.51171916759)
(0.122078235815 0.187436729064 -2.03443174836)
(0.100187018958 0.228392315159 -2.47896225792)
(0.07444567115 0.260570912714 -2.82822763813)
(0.0458434179402 0.282735916188 -3.0688058163)
(0.0154794278935 0.294035536984 -3.19145150803)
(-0.015479427891 0.294035536983 -3.19145150797)
(-0.0458434179427 0.282735916188 -3.06880581631)
(-0.0744456711475 0.260570912714 -2.82822763812)
(-0.100187018966 0.228392315185 -2.47896225793)
(-0.122078235815 0.187436729039 -2.03443174835)
(-0.139278054569 0.139278054544 -1.51171916759)
(-0.151125495744 0.0857670025159 -0.930912067014)
(-0.157165268895 0.0289599726738 -0.314330537779)
(-0.157165268895 -0.0289599726738 0.314330537781)
(-0.151125495744 -0.0857670025159 0.93091206704)
(-0.139278054544 -0.139278054544 1.51171916759)
(-0.122078235841 -0.187436729064 2.03443174833)
(-0.100187018969 -0.228392315159 2.47896225793)
(-0.0744456711475 -0.260570912714 2.82822763815)
(-0.0458434179402 -0.282735916188 3.06880581629)